MODEL 1
REMARK VINA RESULT:    -6.481      0.000      0.000
REMARK INTER + INTRA:          -9.058
REMARK INTER:                  -8.375
REMARK INTRA:                  -0.682
REMARK UNBOUND:                -0.682
REMARK SMILES CCOC(=O)C(C)(C)Oc1ccc(Cl)cc1
REMARK SMILES IDX 5 1 4 2 6 3 7 4 8 5 9 6 10 7 13 8 12 9 15 10 11 11 16 12
REMARK SMILES IDX 14 13 3 14 2 15 1 16
REMARK H PARENT
ROOT
ATOM      1  O   UNL     1      35.090  -8.737  33.259  1.00  0.00    -0.247 OA
ATOM      2  C   UNL     1      34.641  -9.215  34.294  1.00  0.00    +0.349 C 
ENDROOT
BRANCH   2   3
ATOM      3  C   UNL     1      35.375  -9.215  35.653  1.00  0.00    +0.200 C 
ATOM      4  C   UNL     1      34.514  -9.842  36.761  1.00  0.00    +0.069 C 
ATOM      5  C   UNL     1      35.576  -7.731  36.018  1.00  0.00    +0.069 C 
BRANCH   3   6
ATOM      6  O   UNL     1      36.690  -9.777  35.679  1.00  0.00    -0.476 OA
BRANCH   6   7
ATOM      7  C   UNL     1      36.987 -10.978  35.106  1.00  0.00    +0.121 A 
ATOM      8  C   UNL     1      37.734 -13.265  33.667  1.00  0.00    +0.041 A 
ATOM      9  C   UNL     1      38.013 -12.004  33.151  1.00  0.00    +0.024 A 
ATOM     10  C   UNL     1      37.091 -13.390  34.895  1.00  0.00    +0.024 A 
ATOM     11  C   UNL     1      37.640 -10.867  33.872  1.00  0.00    +0.048 A 
ATOM     12  C   UNL     1      36.718 -12.247  35.615  1.00  0.00    +0.048 A 
ATOM     13 Cl   UNL     1      38.187 -14.672  32.788  1.00  0.00    -0.084 Cl
ENDBRANCH   6   7
ENDBRANCH   3   6
ENDBRANCH   2   3
BRANCH   2  14
ATOM     14  O   UNL     1      33.421  -9.819  34.400  1.00  0.00    -0.463 OA
BRANCH  14  15
ATOM     15  C   UNL     1      33.115 -10.730  33.339  1.00  0.00    +0.229 C 
ATOM     16  C   UNL     1      33.590 -12.109  33.751  1.00  0.00    +0.049 C 
ENDBRANCH  14  15
ENDBRANCH   2  14
TORSDOF 5
ENDMDL
MODEL 2
REMARK VINA RESULT:    -6.205     10.190     11.703
REMARK INTER + INTRA:          -8.701
REMARK INTER:                  -8.163
REMARK INTRA:                  -0.538
REMARK UNBOUND:                -0.682
REMARK SMILES CCOC(=O)C(C)(C)Oc1ccc(Cl)cc1
REMARK SMILES IDX 5 1 4 2 6 3 7 4 8 5 9 6 10 7 13 8 12 9 15 10 11 11 16 12
REMARK SMILES IDX 14 13 3 14 2 15 1 16
REMARK H PARENT
ROOT
ATOM      1  O   UNL     1      36.426 -21.905  27.495  1.00  0.00    -0.247 OA
ATOM      2  C   UNL     1      36.051 -20.792  27.140  1.00  0.00    +0.349 C 
ENDROOT
BRANCH   2   3
ATOM      3  C   UNL     1      35.956 -19.560  28.067  1.00  0.00    +0.200 C 
ATOM      4  C   UNL     1      35.598 -19.961  29.507  1.00  0.00    +0.069 C 
ATOM      5  C   UNL     1      34.783 -18.720  27.524  1.00  0.00    +0.069 C 
BRANCH   3   6
ATOM      6  O   UNL     1      37.072 -18.667  28.072  1.00  0.00    -0.476 OA
BRANCH   6   7
ATOM      7  C   UNL     1      38.342 -19.077  28.350  1.00  0.00    +0.121 A 
ATOM      8  C   UNL     1      40.898 -19.804  29.244  1.00  0.00    +0.041 A 
ATOM      9  C   UNL     1      40.003 -19.208  30.125  1.00  0.00    +0.024 A 
ATOM     10  C   UNL     1      40.524 -20.043  27.924  1.00  0.00    +0.024 A 
ATOM     11  C   UNL     1      38.730 -18.849  29.677  1.00  0.00    +0.048 A 
ATOM     12  C   UNL     1      39.246 -19.680  27.478  1.00  0.00    +0.048 A 
ATOM     13 Cl   UNL     1      42.468 -20.251  29.784  1.00  0.00    -0.084 Cl
ENDBRANCH   6   7
ENDBRANCH   3   6
ENDBRANCH   2   3
BRANCH   2  14
ATOM     14  O   UNL     1      35.662 -20.478  25.870  1.00  0.00    -0.463 OA
BRANCH  14  15
ATOM     15  C   UNL     1      36.697 -20.585  24.887  1.00  0.00    +0.229 C 
ATOM     16  C   UNL     1      37.184 -19.187  24.562  1.00  0.00    +0.049 C 
ENDBRANCH  14  15
ENDBRANCH   2  14
TORSDOF 5
ENDMDL
MODEL 3
REMARK VINA RESULT:    -6.120     10.443     11.557
REMARK INTER + INTRA:          -8.591
REMARK INTER:                  -8.198
REMARK INTRA:                  -0.393
REMARK UNBOUND:                -0.682
REMARK SMILES CCOC(=O)C(C)(C)Oc1ccc(Cl)cc1
REMARK SMILES IDX 5 1 4 2 6 3 7 4 8 5 9 6 10 7 13 8 12 9 15 10 11 11 16 12
REMARK SMILES IDX 14 13 3 14 2 15 1 16
REMARK H PARENT
ROOT
ATOM      1  O   UNL     1      36.309 -21.664  27.741  1.00  0.00    -0.247 OA
ATOM      2  C   UNL     1      35.794 -20.554  27.824  1.00  0.00    +0.349 C 
ENDROOT
BRANCH   2   3
ATOM      3  C   UNL     1      35.980 -19.419  26.794  1.00  0.00    +0.200 C 
ATOM      4  C   UNL     1      34.698 -18.586  26.632  1.00  0.00    +0.069 C 
ATOM      5  C   UNL     1      36.241 -20.118  25.445  1.00  0.00    +0.069 C 
BRANCH   3   6
ATOM      6  O   UNL     1      37.104 -18.554  26.979  1.00  0.00    -0.476 OA
BRANCH   6   7
ATOM      7  C   UNL     1      38.273 -18.977  27.538  1.00  0.00    +0.121 A 
ATOM      8  C   UNL     1      40.565 -19.701  28.981  1.00  0.00    +0.041 A 
ATOM      9  C   UNL     1      39.543 -19.004  29.615  1.00  0.00    +0.024 A 
ATOM     10  C   UNL     1      40.449 -20.042  27.635  1.00  0.00    +0.024 A 
ATOM     11  C   UNL     1      38.402 -18.647  28.893  1.00  0.00    +0.048 A 
ATOM     12  C   UNL     1      39.303 -19.680  26.915  1.00  0.00    +0.048 A 
ATOM     13 Cl   UNL     1      41.975 -20.146  29.859  1.00  0.00    -0.084 Cl
ENDBRANCH   6   7
ENDBRANCH   3   6
ENDBRANCH   2   3
BRANCH   2  14
ATOM     14  O   UNL     1      34.976 -20.158  28.843  1.00  0.00    -0.463 OA
BRANCH  14  15
ATOM     15  C   UNL     1      35.437 -20.516  30.150  1.00  0.00    +0.229 C 
ATOM     16  C   UNL     1      34.298 -21.197  30.882  1.00  0.00    +0.049 C 
ENDBRANCH  14  15
ENDBRANCH   2  14
TORSDOF 5
ENDMDL
MODEL 4
REMARK VINA RESULT:    -6.051      9.840     11.764
REMARK INTER + INTRA:          -8.501
REMARK INTER:                  -8.135
REMARK INTRA:                  -0.367
REMARK UNBOUND:                -0.682
REMARK SMILES CCOC(=O)C(C)(C)Oc1ccc(Cl)cc1
REMARK SMILES IDX 5 1 4 2 6 3 7 4 8 5 9 6 10 7 13 8 12 9 15 10 11 11 16 12
REMARK SMILES IDX 14 13 3 14 2 15 1 16
REMARK H PARENT
ROOT
ATOM      1  O   UNL     1      37.247 -19.770  28.307  1.00  0.00    -0.247 OA
ATOM      2  C   UNL     1      36.242 -20.394  27.983  1.00  0.00    +0.349 C 
ENDROOT
BRANCH   2   3
ATOM      3  C   UNL     1      35.698 -20.497  26.541  1.00  0.00    +0.200 C 
ATOM      4  C   UNL     1      34.557 -21.521  26.438  1.00  0.00    +0.069 C 
ATOM      5  C   UNL     1      36.868 -21.032  25.692  1.00  0.00    +0.069 C 
BRANCH   3   6
ATOM      6  O   UNL     1      35.316 -19.275  25.904  1.00  0.00    -0.476 OA
BRANCH   6   7
ATOM      7  C   UNL     1      34.631 -18.291  26.553  1.00  0.00    +0.121 A 
ATOM      8  C   UNL     1      33.427 -16.044  27.720  1.00  0.00    +0.041 A 
ATOM      9  C   UNL     1      34.465 -15.876  26.811  1.00  0.00    +0.024 A 
ATOM     10  C   UNL     1      32.984 -17.324  28.046  1.00  0.00    +0.024 A 
ATOM     11  C   UNL     1      35.061 -16.997  26.231  1.00  0.00    +0.048 A 
ATOM     12  C   UNL     1      33.585 -18.446  27.462  1.00  0.00    +0.048 A 
ATOM     13 Cl   UNL     1      32.686 -14.670  28.442  1.00  0.00    -0.084 Cl
ENDBRANCH   6   7
ENDBRANCH   3   6
ENDBRANCH   2   3
BRANCH   2  14
ATOM     14  O   UNL     1      35.454 -21.092  28.852  1.00  0.00    -0.463 OA
BRANCH  14  15
ATOM     15  C   UNL     1      35.354 -20.517  30.158  1.00  0.00    +0.229 C 
ATOM     16  C   UNL     1      34.130 -21.099  30.837  1.00  0.00    +0.049 C 
ENDBRANCH  14  15
ENDBRANCH   2  14
TORSDOF 5
ENDMDL
MODEL 5
REMARK VINA RESULT:    -6.017     10.072     12.001
REMARK INTER + INTRA:          -8.458
REMARK INTER:                  -8.213
REMARK INTRA:                  -0.246
REMARK UNBOUND:                -0.682
REMARK SMILES CCOC(=O)C(C)(C)Oc1ccc(Cl)cc1
REMARK SMILES IDX 5 1 4 2 6 3 7 4 8 5 9 6 10 7 13 8 12 9 15 10 11 11 16 12
REMARK SMILES IDX 14 13 3 14 2 15 1 16
REMARK H PARENT
ROOT
ATOM      1  O   UNL     1      38.812 -18.031  29.558  1.00  0.00    -0.247 OA
ATOM      2  C   UNL     1      39.705 -18.421  28.815  1.00  0.00    +0.349 C 
ENDROOT
BRANCH   2   3
ATOM      3  C   UNL     1      40.157 -17.696  27.528  1.00  0.00    +0.200 C 
ATOM      4  C   UNL     1      41.687 -17.562  27.461  1.00  0.00    +0.069 C 
ATOM      5  C   UNL     1      39.579 -16.271  27.628  1.00  0.00    +0.069 C 
BRANCH   3   6
ATOM      6  O   UNL     1      39.657 -18.206  26.289  1.00  0.00    -0.476 OA
BRANCH   6   7
ATOM      7  C   UNL     1      38.585 -19.044  26.217  1.00  0.00    +0.121 A 
ATOM      8  C   UNL     1      36.192 -20.489  25.996  1.00  0.00    +0.041 A 
ATOM      9  C   UNL     1      36.190 -19.115  25.784  1.00  0.00    +0.024 A 
ATOM     10  C   UNL     1      37.379 -21.145  26.312  1.00  0.00    +0.024 A 
ATOM     11  C   UNL     1      37.385 -18.399  25.894  1.00  0.00    +0.048 A 
ATOM     12  C   UNL     1      38.575 -20.423  26.422  1.00  0.00    +0.048 A 
ATOM     13 Cl   UNL     1      34.728 -21.380  25.864  1.00  0.00    -0.084 Cl
ENDBRANCH   6   7
ENDBRANCH   3   6
ENDBRANCH   2   3
BRANCH   2  14
ATOM     14  O   UNL     1      40.436 -19.557  29.016  1.00  0.00    -0.463 OA
BRANCH  14  15
ATOM     15  C   UNL     1      40.970 -19.694  30.337  1.00  0.00    +0.229 C 
ATOM     16  C   UNL     1      42.202 -20.573  30.259  1.00  0.00    +0.049 C 
ENDBRANCH  14  15
ENDBRANCH   2  14
TORSDOF 5
ENDMDL
MODEL 6
REMARK VINA RESULT:    -5.952      9.490     11.224
REMARK INTER + INTRA:          -8.374
REMARK INTER:                  -7.922
REMARK INTRA:                  -0.452
REMARK UNBOUND:                -0.682
REMARK SMILES CCOC(=O)C(C)(C)Oc1ccc(Cl)cc1
REMARK SMILES IDX 5 1 4 2 6 3 7 4 8 5 9 6 10 7 13 8 12 9 15 10 11 11 16 12
REMARK SMILES IDX 14 13 3 14 2 15 1 16
REMARK H PARENT
ROOT
ATOM      1  O   UNL     1      37.965 -18.883  27.838  1.00  0.00    -0.247 OA
ATOM      2  C   UNL     1      36.815 -19.302  27.756  1.00  0.00    +0.349 C 
ENDROOT
BRANCH   2   3
ATOM      3  C   UNL     1      35.566 -18.547  28.262  1.00  0.00    +0.200 C 
ATOM      4  C   UNL     1      34.279 -19.088  27.620  1.00  0.00    +0.069 C 
ATOM      5  C   UNL     1      35.737 -17.092  27.783  1.00  0.00    +0.069 C 
BRANCH   3   6
ATOM      6  O   UNL     1      35.400 -18.446  29.678  1.00  0.00    -0.476 OA
BRANCH   6   7
ATOM      7  C   UNL     1      34.854 -19.446  30.428  1.00  0.00    +0.121 A 
ATOM      8  C   UNL     1      33.527 -21.258  32.105  1.00  0.00    +0.041 A 
ATOM      9  C   UNL     1      33.166 -19.915  32.118  1.00  0.00    +0.024 A 
ATOM     10  C   UNL     1      34.540 -21.701  31.259  1.00  0.00    +0.024 A 
ATOM     11  C   UNL     1      33.829 -19.016  31.280  1.00  0.00    +0.048 A 
ATOM     12  C   UNL     1      35.202 -20.795  30.420  1.00  0.00    +0.048 A 
ATOM     13 Cl   UNL     1      32.718 -22.374  33.134  1.00  0.00    -0.084 Cl
ENDBRANCH   6   7
ENDBRANCH   3   6
ENDBRANCH   2   3
BRANCH   2  14
ATOM     14  O   UNL     1      36.468 -20.501  27.202  1.00  0.00    -0.463 OA
BRANCH  14  15
ATOM     15  C   UNL     1      37.334 -20.943  26.152  1.00  0.00    +0.229 C 
ATOM     16  C   UNL     1      36.716 -20.535  24.829  1.00  0.00    +0.049 C 
ENDBRANCH  14  15
ENDBRANCH   2  14
TORSDOF 5
ENDMDL
MODEL 7
REMARK VINA RESULT:    -5.888     10.532     11.624
REMARK INTER + INTRA:          -8.291
REMARK INTER:                  -7.781
REMARK INTRA:                  -0.510
REMARK UNBOUND:                -0.682
REMARK SMILES CCOC(=O)C(C)(C)Oc1ccc(Cl)cc1
REMARK SMILES IDX 5 1 4 2 6 3 7 4 8 5 9 6 10 7 13 8 12 9 15 10 11 11 16 12
REMARK SMILES IDX 14 13 3 14 2 15 1 16
REMARK H PARENT
ROOT
ATOM      1  O   UNL     1      37.009 -21.079  26.999  1.00  0.00    -0.247 OA
ATOM      2  C   UNL     1      36.780 -19.881  27.119  1.00  0.00    +0.349 C 
ENDROOT
BRANCH   2   3
ATOM      3  C   UNL     1      37.321 -18.784  26.176  1.00  0.00    +0.200 C 
ATOM      4  C   UNL     1      36.523 -17.477  26.311  1.00  0.00    +0.069 C 
ATOM      5  C   UNL     1      37.089 -19.312  24.747  1.00  0.00    +0.069 C 
BRANCH   3   6
ATOM      6  O   UNL     1      38.723 -18.509  26.239  1.00  0.00    -0.476 OA
BRANCH   6   7
ATOM      7  C   UNL     1      39.504 -18.909  27.282  1.00  0.00    +0.121 A 
ATOM      8  C   UNL     1      41.247 -19.964  29.209  1.00  0.00    +0.041 A 
ATOM      9  C   UNL     1      41.252 -20.480  27.918  1.00  0.00    +0.024 A 
ATOM     10  C   UNL     1      40.382 -18.923  29.541  1.00  0.00    +0.024 A 
ATOM     11  C   UNL     1      40.383 -19.951  26.961  1.00  0.00    +0.048 A 
ATOM     12  C   UNL     1      39.512 -18.396  28.578  1.00  0.00    +0.048 A 
ATOM     13 Cl   UNL     1      42.311 -20.608  30.396  1.00  0.00    -0.084 Cl
ENDBRANCH   6   7
ENDBRANCH   3   6
ENDBRANCH   2   3
BRANCH   2  14
ATOM     14  O   UNL     1      36.011 -19.338  28.108  1.00  0.00    -0.463 OA
BRANCH  14  15
ATOM     15  C   UNL     1      36.202 -19.923  29.400  1.00  0.00    +0.229 C 
ATOM     16  C   UNL     1      34.838 -20.268  29.966  1.00  0.00    +0.049 C 
ENDBRANCH  14  15
ENDBRANCH   2  14
TORSDOF 5
ENDMDL
MODEL 8
REMARK VINA RESULT:    -5.819      9.874     11.658
REMARK INTER + INTRA:          -8.202
REMARK INTER:                  -7.797
REMARK INTRA:                  -0.405
REMARK UNBOUND:                -0.682
REMARK SMILES CCOC(=O)C(C)(C)Oc1ccc(Cl)cc1
REMARK SMILES IDX 5 1 4 2 6 3 7 4 8 5 9 6 10 7 13 8 12 9 15 10 11 11 16 12
REMARK SMILES IDX 14 13 3 14 2 15 1 16
REMARK H PARENT
ROOT
ATOM      1  O   UNL     1      36.049 -18.013  25.344  1.00  0.00    -0.247 OA
ATOM      2  C   UNL     1      35.513 -18.895  26.005  1.00  0.00    +0.349 C 
ENDROOT
BRANCH   2   3
ATOM      3  C   UNL     1      35.978 -20.367  26.047  1.00  0.00    +0.200 C 
ATOM      4  C   UNL     1      36.691 -20.773  24.747  1.00  0.00    +0.069 C 
ATOM      5  C   UNL     1      34.690 -21.209  26.139  1.00  0.00    +0.069 C 
BRANCH   3   6
ATOM      6  O   UNL     1      36.757 -20.769  27.176  1.00  0.00    -0.476 OA
BRANCH   6   7
ATOM      7  C   UNL     1      37.857 -20.080  27.594  1.00  0.00    +0.121 A 
ATOM      8  C   UNL     1      39.925 -18.556  28.717  1.00  0.00    +0.041 A 
ATOM      9  C   UNL     1      38.686 -18.608  29.347  1.00  0.00    +0.024 A 
ATOM     10  C   UNL     1      40.138 -19.262  27.536  1.00  0.00    +0.024 A 
ATOM     11  C   UNL     1      37.659 -19.369  28.784  1.00  0.00    +0.048 A 
ATOM     12  C   UNL     1      39.105 -20.024  26.975  1.00  0.00    +0.048 A 
ATOM     13 Cl   UNL     1      41.196 -17.621  29.400  1.00  0.00    -0.084 Cl
ENDBRANCH   6   7
ENDBRANCH   3   6
ENDBRANCH   2   3
BRANCH   2  14
ATOM     14  O   UNL     1      34.423 -18.705  26.805  1.00  0.00    -0.463 OA
BRANCH  14  15
ATOM     15  C   UNL     1      34.116 -17.334  27.076  1.00  0.00    +0.229 C 
ATOM     16  C   UNL     1      32.967 -17.295  28.064  1.00  0.00    +0.049 C 
ENDBRANCH  14  15
ENDBRANCH   2  14
TORSDOF 5
ENDMDL
MODEL 9
REMARK VINA RESULT:    -5.773      2.546      3.960
REMARK INTER + INTRA:          -8.142
REMARK INTER:                  -7.396
REMARK INTRA:                  -0.746
REMARK UNBOUND:                -0.682
REMARK SMILES CCOC(=O)C(C)(C)Oc1ccc(Cl)cc1
REMARK SMILES IDX 5 1 4 2 6 3 7 4 8 5 9 6 10 7 13 8 12 9 15 10 11 11 16 12
REMARK SMILES IDX 14 13 3 14 2 15 1 16
REMARK H PARENT
ROOT
ATOM      1  O   UNL     1      35.301 -12.358  32.144  1.00  0.00    -0.247 OA
ATOM      2  C   UNL     1      34.809 -11.965  33.196  1.00  0.00    +0.349 C 
ENDROOT
BRANCH   2   3
ATOM      3  C   UNL     1      33.921 -10.709  33.336  1.00  0.00    +0.200 C 
ATOM      4  C   UNL     1      33.183 -10.685  34.684  1.00  0.00    +0.069 C 
ATOM      5  C   UNL     1      32.851 -10.830  32.234  1.00  0.00    +0.069 C 
BRANCH   3   6
ATOM      6  O   UNL     1      34.547  -9.445  33.100  1.00  0.00    -0.476 OA
BRANCH   6   7
ATOM      7  C   UNL     1      35.805  -9.154  33.536  1.00  0.00    +0.121 A 
ATOM      8  C   UNL     1      38.499  -8.631  34.112  1.00  0.00    +0.041 A 
ATOM      9  C   UNL     1      38.132  -9.024  32.830  1.00  0.00    +0.024 A 
ATOM     10  C   UNL     1      37.531  -8.493  35.105  1.00  0.00    +0.024 A 
ATOM     11  C   UNL     1      36.788  -9.283  32.547  1.00  0.00    +0.048 A 
ATOM     12  C   UNL     1      36.185  -8.754  34.816  1.00  0.00    +0.048 A 
ATOM     13 Cl   UNL     1      40.149  -8.311  34.473  1.00  0.00    -0.084 Cl
ENDBRANCH   6   7
ENDBRANCH   3   6
ENDBRANCH   2   3
BRANCH   2  14
ATOM     14  O   UNL     1      34.972 -12.583  34.403  1.00  0.00    -0.463 OA
BRANCH  14  15
ATOM     15  C   UNL     1      36.328 -12.655  34.855  1.00  0.00    +0.229 C 
ATOM     16  C   UNL     1      36.376 -12.144  36.281  1.00  0.00    +0.049 C 
ENDBRANCH  14  15
ENDBRANCH   2  14
TORSDOF 5
ENDMDL
