MODEL 1
REMARK VINA RESULT:   -10.744      0.000      0.000
REMARK INTER + INTRA:         -27.304
REMARK INTER:                 -22.364
REMARK INTRA:                  -4.940
REMARK UNBOUND:                -4.940
REMARK SMILES CC(C)c1nc(CN(C)C(=O)N[C@H](C(=O)N/C(=C\[C@H](O)[C@H](Cc2ccccc2)NC(=O)OCc2cncs2)Cc2ccccc2)C(C)C)cs1
REMARK SMILES IDX 16 1 14 2 15 3 17 5 18 6 19 7 21 8 29 9 30 10 31 11 32 13
REMARK SMILES IDX 33 14 34 15 35 16 36 17 37 18 38 19 22 20 23 21 24 22 28 23
REMARK SMILES IDX 25 24 27 25 26 26 20 27 39 29 40 30 41 31 45 32 42 33 44 34
REMARK SMILES IDX 43 35 13 36 46 37 47 38 48 39 12 40 10 41 11 42 8 44 9 45
REMARK SMILES IDX 7 46 6 47 49 48 5 49 50 50 4 51 2 52 1 53 3 54
REMARK H PARENT 16 4 29 12 20 28 12 43
ROOT
ATOM      1  N   UNL     1      37.346 -14.019  30.122  1.00  0.00    -0.328 N 
ATOM      2  C   UNL     1      36.919 -12.761  29.720  1.00  0.00    +0.247 C 
ATOM      3  O   UNL     1      37.628 -11.789  29.645  1.00  0.00    -0.272 OA
ATOM      4  H   UNL     1      36.650 -14.710  30.215  1.00  0.00    +0.169 HD
ENDROOT
BRANCH   1   5
ATOM      5  C   UNL     1      38.749 -14.440  30.431  1.00  0.00    +0.021 C 
ATOM      6  C   UNL     1      39.241 -15.330  29.582  1.00  0.00    +0.028 C 
BRANCH   6   7
ATOM      7  C   UNL     1      38.447 -15.782  28.336  1.00  0.00    +0.162 C 
BRANCH   7   8
ATOM      8  C   UNL     1      39.319 -16.927  27.880  1.00  0.00    +0.122 C 
BRANCH   8   9
ATOM      9  N   UNL     1      38.951 -17.592  26.479  1.00  0.00    -0.315 N 
ATOM     10  C   UNL     1      38.350 -18.852  26.553  1.00  0.00    +0.407 C 
ATOM     11  O   UNL     1      38.164 -19.449  27.839  1.00  0.00    -0.225 OA
ATOM     12  H   UNL     1      39.135 -17.147  25.621  1.00  0.00    +0.167 HD
BRANCH  10  13
ATOM     13  O   UNL     1      37.734 -19.398  25.527  1.00  0.00    -0.444 OA
BRANCH  13  14
ATOM     14  C   UNL     1      36.432 -18.755  25.335  1.00  0.00    +0.283 C 
BRANCH  14  15
ATOM     15  C   UNL     1      35.550 -19.442  25.902  1.00  0.00    +0.062 A 
ATOM     16  C   UNL     1      34.663 -19.399  26.740  1.00  0.00    +0.130 A 
ATOM     17  N   UNL     1      34.069 -20.561  26.994  1.00  0.00    -0.253 NA
ATOM     18  C   UNL     1      34.490 -21.632  26.358  1.00  0.00    +0.175 A 
ATOM     19  S   UNL     1      35.673 -21.059  25.454  1.00  0.00    -0.124 S 
ENDBRANCH  14  15
ENDBRANCH  13  14
ENDBRANCH  10  13
ENDBRANCH   8   9
BRANCH   8  20
ATOM     20  C   UNL     1      40.826 -16.722  28.314  1.00  0.00    +0.063 C 
BRANCH  20  21
ATOM     21  C   UNL     1      41.410 -18.039  28.575  1.00  0.00    -0.046 A 
ATOM     22  C   UNL     1      40.987 -18.705  29.905  1.00  0.00    +0.004 A 
ATOM     23  C   UNL     1      42.321 -18.711  27.660  1.00  0.00    +0.004 A 
ATOM     24  C   UNL     1      41.505 -20.055  30.262  1.00  0.00    +0.000 A 
ATOM     25  C   UNL     1      42.832 -20.045  28.023  1.00  0.00    +0.000 A 
ATOM     26  C   UNL     1      42.430 -20.722  29.320  1.00  0.00    +0.000 A 
ENDBRANCH  20  21
ENDBRANCH   8  20
ENDBRANCH   7   8
BRANCH   7  27
ATOM     27  O   UNL     1      37.155 -16.468  28.881  1.00  0.00    -0.387 OA
ATOM     28  H   UNL     1      37.360 -16.931  29.708  1.00  0.00    +0.211 HD
ENDBRANCH   7  27
ENDBRANCH   6   7
BRANCH   5  29
ATOM     29  C   UNL     1      39.525 -14.402  31.902  1.00  0.00    +0.089 C 
BRANCH  29  30
ATOM     30  C   UNL     1      38.690 -13.654  32.806  1.00  0.00    -0.042 A 
ATOM     31  C   UNL     1      38.615 -12.201  32.800  1.00  0.00    +0.004 A 
ATOM     32  C   UNL     1      37.929 -14.503  33.854  1.00  0.00    +0.004 A 
ATOM     33  C   UNL     1      37.760 -11.531  33.866  1.00  0.00    +0.000 A 
ATOM     34  C   UNL     1      37.103 -13.831  34.897  1.00  0.00    +0.000 A 
ATOM     35  C   UNL     1      37.035 -12.340  34.896  1.00  0.00    +0.000 A 
ENDBRANCH  29  30
ENDBRANCH   5  29
ENDBRANCH   1   5
BRANCH   2  36
ATOM     36  C   UNL     1      35.500 -12.783  29.749  1.00  0.00    +0.176 C 
BRANCH  36  37
ATOM     37  C   UNL     1      34.756 -12.135  31.111  1.00  0.00    +0.015 C 
ATOM     38  C   UNL     1      33.690 -10.968  31.040  1.00  0.00    +0.010 C 
ATOM     39  C   UNL     1      34.635 -13.037  32.432  1.00  0.00    +0.010 C 
ENDBRANCH  36  37
BRANCH  36  40
ATOM     40  N   UNL     1      34.947 -13.967  29.682  1.00  0.00    -0.326 N 
ATOM     41  C   UNL     1      33.951 -13.999  28.546  1.00  0.00    +0.318 C 
ATOM     42  O   UNL     1      33.723 -12.857  27.825  1.00  0.00    -0.249 OA
ATOM     43  H   UNL     1      35.150 -14.722  30.280  1.00  0.00    +0.166 HD
BRANCH  41  44
ATOM     44  N   UNL     1      33.265 -15.215  28.218  1.00  0.00    -0.322 N 
ATOM     45  C   UNL     1      33.642 -15.959  26.981  1.00  0.00    +0.149 C 
BRANCH  44  46
ATOM     46  C   UNL     1      32.160 -15.795  29.158  1.00  0.00    +0.178 C 
BRANCH  46  47
ATOM     47  C   UNL     1      32.782 -16.574  30.304  1.00  0.00    +0.071 A 
ATOM     48  C   UNL     1      32.887 -16.096  31.554  1.00  0.00    +0.092 A 
ATOM     49  N   UNL     1      33.246 -17.796  30.060  1.00  0.00    -0.244 NA
ATOM     50  S   UNL     1      33.684 -17.507  32.335  1.00  0.00    -0.127 S 
ATOM     51  C   UNL     1      33.789 -18.530  30.920  1.00  0.00    +0.095 A 
BRANCH  51  52
ATOM     52  C   UNL     1      34.397 -19.977  30.573  1.00  0.00    +0.042 C 
ATOM     53  C   UNL     1      35.881 -19.978  30.383  1.00  0.00    +0.015 C 
ATOM     54  C   UNL     1      33.979 -21.062  31.546  1.00  0.00    +0.015 C 
ENDBRANCH  51  52
ENDBRANCH  46  47
ENDBRANCH  44  46
ENDBRANCH  41  44
ENDBRANCH  36  40
ENDBRANCH   2  36
TORSDOF 19
ENDMDL
