REMARK SMILES CC(C)c1nc(CN(C)C(=O)N[C@H](C(=O)N/C(=C\[C@H](O)[C@H](Cc2ccccc2)NC(=O)OCc2cncs2)Cc2ccccc2)C(C)C)cs1
REMARK SMILES IDX 16 1 14 2 15 3 17 5 18 6 19 7 21 8 29 9 30 10 31 11 32 13
REMARK SMILES IDX 33 14 34 15 35 16 36 17 37 18 38 19 22 20 23 21 24 22 28 23
REMARK SMILES IDX 25 24 27 25 26 26 20 27 39 29 40 30 41 31 45 32 42 33 44 34
REMARK SMILES IDX 43 35 13 36 46 37 47 38 48 39 12 40 10 41 11 42 8 44 9 45
REMARK SMILES IDX 7 46 6 47 49 48 5 49 50 50 4 51 2 52 1 53 3 54
REMARK H PARENT 16 4 29 12 20 28 12 43
ROOT
ATOM      1  N   UNL     1      36.679 -14.708  28.693  1.00  0.00    -0.328 N 
ATOM      2  C   UNL     1      36.212 -14.898  29.986  1.00  0.00    +0.247 C 
ATOM      3  O   UNL     1      35.483 -15.797  30.325  1.00  0.00    -0.272 OA
ATOM      4  H   UNL     1      37.205 -13.891  28.532  1.00  0.00    +0.169 HD
ENDROOT
BRANCH   1   5
ATOM      5  C   UNL     1      36.471 -15.609  27.516  1.00  0.00    +0.021 C 
ATOM      6  C   UNL     1      37.593 -15.973  26.914  1.00  0.00    +0.028 C 
BRANCH   6   7
ATOM      7  C   UNL     1      38.976 -15.573  27.474  1.00  0.00    +0.162 C 
BRANCH   7   8
ATOM      8  C   UNL     1      39.628 -16.933  27.540  1.00  0.00    +0.122 C 
BRANCH   8   9
ATOM      9  N   UNL     1      39.274 -17.954  26.369  1.00  0.00    -0.315 N 
ATOM     10  C   UNL     1      38.563 -19.092  26.760  1.00  0.00    +0.407 C 
ATOM     11  O   UNL     1      38.263 -19.270  28.146  1.00  0.00    -0.225 OA
ATOM     12  H   UNL     1      39.538 -17.794  25.434  1.00  0.00    +0.167 HD
BRANCH  10  13
ATOM     13  O   UNL     1      37.954 -19.872  25.894  1.00  0.00    -0.444 OA
BRANCH  13  14
ATOM     14  C   UNL     1      37.324 -20.992  26.597  1.00  0.00    +0.283 C 
BRANCH  14  15
ATOM     15  C   UNL     1      36.142 -21.113  26.197  1.00  0.00    +0.062 A 
ATOM     16  C   UNL     1      35.459 -21.313  25.205  1.00  0.00    +0.130 A 
ATOM     17  N   UNL     1      34.146 -21.246  25.400  1.00  0.00    -0.253 NA
ATOM     18  C   UNL     1      33.705 -20.954  26.604  1.00  0.00    +0.175 A 
ATOM     19  S   UNL     1      35.055 -20.764  27.433  1.00  0.00    -0.124 S 
ENDBRANCH  14  15
ENDBRANCH  13  14
ENDBRANCH  10  13
ENDBRANCH   8   9
BRANCH   8  20
ATOM     20  C   UNL     1      41.092 -16.850  28.134  1.00  0.00    +0.063 C 
BRANCH  20  21
ATOM     21  C   UNL     1      41.486 -18.191  28.569  1.00  0.00    -0.046 A 
ATOM     22  C   UNL     1      40.791 -18.708  29.850  1.00  0.00    +0.004 A 
ATOM     23  C   UNL     1      42.453 -19.015  27.859  1.00  0.00    +0.004 A 
ATOM     24  C   UNL     1      41.102 -20.069  30.370  1.00  0.00    +0.000 A 
ATOM     25  C   UNL     1      42.758 -20.359  28.383  1.00  0.00    +0.000 A 
ATOM     26  C   UNL     1      42.088 -20.892  29.636  1.00  0.00    +0.000 A 
ENDBRANCH  20  21
ENDBRANCH   8  20
ENDBRANCH   7   8
BRANCH   7  27
ATOM     27  O   UNL     1      39.712 -14.843  26.307  1.00  0.00    -0.387 OA
ATOM     28  H   UNL     1      39.696 -15.402  25.515  1.00  0.00    +0.211 HD
ENDBRANCH   7  27
ENDBRANCH   6   7
BRANCH   5  29
ATOM     29  C   UNL     1      35.113 -15.747  26.565  1.00  0.00    +0.089 C 
BRANCH  29  30
ATOM     30  C   UNL     1      33.973 -15.750  27.445  1.00  0.00    -0.042 A 
ATOM     31  C   UNL     1      33.285 -14.536  27.857  1.00  0.00    +0.004 A 
ATOM     32  C   UNL     1      33.571 -17.140  27.997  1.00  0.00    +0.004 A 
ATOM     33  C   UNL     1      32.148 -14.671  28.860  1.00  0.00    +0.000 A 
ATOM     34  C   UNL     1      32.461 -17.254  28.985  1.00  0.00    +0.000 A 
ATOM     35  C   UNL     1      31.762 -16.007  29.415  1.00  0.00    +0.000 A 
ENDBRANCH  29  30
ENDBRANCH   5  29
ENDBRANCH   1   5
BRANCH   2  36
ATOM     36  C   UNL     1      36.475 -13.698  30.696  1.00  0.00    +0.176 C 
BRANCH  36  37
ATOM     37  C   UNL     1      37.934 -13.610  31.530  1.00  0.00    +0.015 C 
ATOM     38  C   UNL     1      38.039 -13.151  33.040  1.00  0.00    +0.010 C 
ATOM     39  C   UNL     1      39.158 -14.529  31.050  1.00  0.00    +0.010 C 
ENDBRANCH  36  37
BRANCH  36  40
ATOM     40  N   UNL     1      35.615 -13.390  31.632  1.00  0.00    -0.326 N 
ATOM     41  C   UNL     1      34.650 -12.350  31.113  1.00  0.00    +0.318 C 
ATOM     42  O   UNL     1      34.820 -11.852  29.849  1.00  0.00    -0.249 OA
ATOM     43  H   UNL     1      35.599 -13.777  32.537  1.00  0.00    +0.166 HD
BRANCH  41  44
ATOM     44  N   UNL     1      33.559 -11.901  31.930  1.00  0.00    -0.322 N 
ATOM     45  C   UNL     1      32.619 -10.872  31.398  1.00  0.00    +0.149 C 
BRANCH  44  46
ATOM     46  C   UNL     1      33.315 -12.505  33.350  1.00  0.00    +0.178 C 
BRANCH  46  47
ATOM     47  C   UNL     1      34.451 -12.143  34.292  1.00  0.00    +0.071 A 
ATOM     48  C   UNL     1      34.947 -12.985  35.212  1.00  0.00    +0.092 A 
ATOM     49  N   UNL     1      34.986 -10.929  34.200  1.00  0.00    -0.244 NA
ATOM     50  S   UNL     1      36.215 -11.922  35.919  1.00  0.00    -0.127 S 
ATOM     51  C   UNL     1      35.918 -10.512  34.928  1.00  0.00    +0.095 A 
BRANCH  51  52
ATOM     52  C   UNL     1      36.497  -9.015  34.832  1.00  0.00    +0.042 C 
ATOM     53  C   UNL     1      36.543  -8.301  36.147  1.00  0.00    +0.015 C 
ATOM     54  C   UNL     1      37.834  -8.923  34.124  1.00  0.00    +0.015 C 
ENDBRANCH  51  52
ENDBRANCH  46  47
ENDBRANCH  44  46
ENDBRANCH  41  44
ENDBRANCH  36  40
ENDBRANCH   2  36
TORSDOF 19
