MODEL 1
REMARK VINA RESULT:    -8.917      0.000      0.000
REMARK INTER + INTRA:         -13.104
REMARK INTER:                 -12.305
REMARK INTRA:                  -0.799
REMARK UNBOUND:                -0.799
REMARK SMILES N[C@@H](CC(=O)N1CCn2c(nnc2C(F)(F)F)C1)Cc1cc(F)c(F)cc1F
REMARK SMILES IDX 3 1 2 2 19 3 20 4 26 5 27 6 24 7 22 8 21 9 28 10 25 11 23 12
REMARK SMILES IDX 1 13 4 16 5 17 6 18 18 19 7 20 10 21 8 22 9 23 11 24 13 25
REMARK SMILES IDX 12 26 14 27 16 28 15 29 17 30
REMARK H PARENT 1 14 1 15
ROOT
ATOM      1  C   UNL     1      40.604  51.198  36.374  1.00  0.00    +0.119 C 
ENDROOT
BRANCH   1   2
ATOM      2  C   UNL     1      39.262  50.796  35.816  1.00  0.00    +0.064 C 
BRANCH   2   3
ATOM      3  C   UNL     1      38.225  51.012  36.937  1.00  0.00    +0.058 C 
BRANCH   3   4
ATOM      4  C   UNL     1      36.947  50.274  36.686  1.00  0.00    -0.008 A 
ATOM      5  C   UNL     1      34.432  50.303  36.831  1.00  0.00    +0.082 A 
ATOM      6  C   UNL     1      35.703  50.917  37.036  1.00  0.00    +0.129 A 
ATOM      7  C   UNL     1      34.415  49.009  36.248  1.00  0.00    +0.161 A 
ATOM      8  C   UNL     1      35.620  48.347  35.894  1.00  0.00    +0.159 A 
ATOM      9  C   UNL     1      36.897  48.964  36.099  1.00  0.00    +0.049 A 
ATOM     10  F   UNL     1      35.725  52.125  37.581  1.00  0.00    -0.207 F 
ATOM     11  F   UNL     1      33.267  48.428  36.048  1.00  0.00    -0.204 F 
ATOM     12  F   UNL     1      35.573  47.155  35.356  1.00  0.00    -0.204 F 
ENDBRANCH   3   4
ENDBRANCH   2   3
BRANCH   2  13
ATOM     13  N   UNL     1      38.919  51.643  34.673  1.00  0.00    -0.327 NA
ATOM     14  H   UNL     1      38.726  52.591  34.998  1.00  0.00    +0.119 HD
ATOM     15  H   UNL     1      38.092  51.268  34.208  1.00  0.00    +0.119 HD
ENDBRANCH   2  13
ENDBRANCH   1   2
BRANCH   1  16
ATOM     16  C   UNL     1      41.846  51.226  35.381  1.00  0.00    +0.224 C 
ATOM     17  O   UNL     1      41.806  50.540  34.343  1.00  0.00    -0.275 OA
BRANCH  16  18
ATOM     18  N   UNL     1      42.982  52.010  35.789  1.00  0.00    -0.333 N 
ATOM     19  C   UNL     1      43.957  51.130  36.629  1.00  0.00    +0.197 C 
ATOM     20  C   UNL     1      43.514  52.710  34.595  1.00  0.00    +0.142 C 
ATOM     21  C   UNL     1      45.462  51.299  36.331  1.00  0.00    +0.153 A 
ATOM     22  C   UNL     1      44.836  52.220  34.038  1.00  0.00    +0.147 C 
ATOM     23  N   UNL     1      45.794  51.810  35.107  1.00  0.00    -0.304 N 
ATOM     24  N   UNL     1      46.551  51.036  37.040  1.00  0.00    -0.133 NA
ATOM     25  C   UNL     1      47.140  51.819  35.148  1.00  0.00    +0.238 A 
ATOM     26  N   UNL     1      47.554  51.345  36.338  1.00  0.00    -0.125 NA
BRANCH  25  27
ATOM     27  C   UNL     1      48.088  52.286  34.039  1.00  0.00    +0.451 C 
ATOM     28  F   UNL     1      49.322  52.026  34.452  1.00  0.00    -0.163 F 
ATOM     29  F   UNL     1      47.801  51.613  32.957  1.00  0.00    -0.163 F 
ATOM     30  F   UNL     1      47.912  53.596  33.824  1.00  0.00    -0.163 F 
ENDBRANCH  25  27
ENDBRANCH  16  18
ENDBRANCH   1  16
TORSDOF 7
ENDMDL
