MODEL 1
REMARK VINA RESULT:   -11.055      0.000      0.000
REMARK INTER + INTRA:         -27.285
REMARK INTER:                 -23.012
REMARK INTRA:                  -4.274
REMARK UNBOUND:                -4.274
REMARK SMILES CC(C)c1nc(CN(C)C(=O)N[C@H](C(=O)N/C(=C\[C@H](O)[C@H](Cc2ccccc2)NC(=O)OCc2cncs2)Cc2ccccc2)C(C)C)cs1
REMARK SMILES IDX 16 1 14 2 15 3 17 5 18 6 19 7 21 8 29 9 30 10 31 11 32 13
REMARK SMILES IDX 33 14 34 15 35 16 36 17 37 18 38 19 22 20 23 21 24 22 28 23
REMARK SMILES IDX 25 24 27 25 26 26 20 27 39 29 40 30 41 31 45 32 42 33 44 34
REMARK SMILES IDX 43 35 13 36 46 37 47 38 48 39 12 40 10 41 11 42 8 44 9 45
REMARK SMILES IDX 7 46 6 47 49 48 5 49 50 50 4 51 2 52 1 53 3 54
REMARK H PARENT 16 4 29 12 20 28 12 43
ROOT
ATOM      1  N   UNL     1      37.092 -14.274  30.176  1.00  0.00    -0.328 N 
ATOM      2  C   UNL     1      36.476 -13.141  29.663  1.00  0.00    +0.247 C 
ATOM      3  O   UNL     1      37.048 -12.115  29.391  1.00  0.00    -0.272 OA
ATOM      4  H   UNL     1      36.500 -15.020  30.428  1.00  0.00    +0.169 HD
ENDROOT
BRANCH   1   5
ATOM      5  C   UNL     1      38.559 -14.486  30.390  1.00  0.00    +0.021 C 
ATOM      6  C   UNL     1      39.125 -15.267  29.482  1.00  0.00    +0.028 C 
BRANCH   6   7
ATOM      7  C   UNL     1      38.333 -15.799  28.267  1.00  0.00    +0.162 C 
BRANCH   7   8
ATOM      8  C   UNL     1      39.211 -16.964  27.880  1.00  0.00    +0.122 C 
BRANCH   8   9
ATOM      9  N   UNL     1      38.865 -17.697  26.508  1.00  0.00    -0.315 N 
ATOM     10  C   UNL     1      38.440 -19.023  26.627  1.00  0.00    +0.407 C 
ATOM     11  O   UNL     1      38.399 -19.616  27.927  1.00  0.00    -0.225 OA
ATOM     12  H   UNL     1      38.946 -17.246  25.637  1.00  0.00    +0.167 HD
BRANCH  10  13
ATOM     13  O   UNL     1      37.851 -19.663  25.640  1.00  0.00    -0.444 OA
BRANCH  13  14
ATOM     14  C   UNL     1      36.680 -18.906  25.192  1.00  0.00    +0.283 C 
BRANCH  14  15
ATOM     15  C   UNL     1      35.672 -19.298  25.826  1.00  0.00    +0.062 A 
ATOM     16  C   UNL     1      34.791 -18.933  26.588  1.00  0.00    +0.130 A 
ATOM     17  N   UNL     1      33.984 -19.896  27.023  1.00  0.00    -0.253 NA
ATOM     18  C   UNL     1      34.211 -21.129  26.627  1.00  0.00    +0.175 A 
ATOM     19  S   UNL     1      35.500 -20.967  25.701  1.00  0.00    -0.124 S 
ENDBRANCH  14  15
ENDBRANCH  13  14
ENDBRANCH  10  13
ENDBRANCH   8   9
BRANCH   8  20
ATOM     20  C   UNL     1      40.712 -16.737  28.327  1.00  0.00    +0.063 C 
BRANCH  20  21
ATOM     21  C   UNL     1      41.300 -18.042  28.635  1.00  0.00    -0.046 A 
ATOM     22  C   UNL     1      40.886 -18.657  29.993  1.00  0.00    +0.004 A 
ATOM     23  C   UNL     1      42.205 -18.748  27.740  1.00  0.00    +0.004 A 
ATOM     24  C   UNL     1      41.409 -19.992  30.398  1.00  0.00    +0.000 A 
ATOM     25  C   UNL     1      42.721 -20.067  28.151  1.00  0.00    +0.000 A 
ATOM     26  C   UNL     1      42.329 -20.694  29.476  1.00  0.00    +0.000 A 
ENDBRANCH  20  21
ENDBRANCH   8  20
ENDBRANCH   7   8
BRANCH   7  27
ATOM     27  O   UNL     1      37.046 -16.458  28.855  1.00  0.00    -0.387 OA
ATOM     28  H   UNL     1      36.672 -15.882  29.539  1.00  0.00    +0.211 HD
ENDBRANCH   7  27
ENDBRANCH   6   7
BRANCH   5  29
ATOM     29  C   UNL     1      39.409 -14.372  31.815  1.00  0.00    +0.089 C 
BRANCH  29  30
ATOM     30  C   UNL     1      38.606 -13.603  32.731  1.00  0.00    -0.042 A 
ATOM     31  C   UNL     1      38.549 -12.149  32.709  1.00  0.00    +0.004 A 
ATOM     32  C   UNL     1      37.862 -14.430  33.808  1.00  0.00    +0.004 A 
ATOM     33  C   UNL     1      37.730 -11.456  33.789  1.00  0.00    +0.000 A 
ATOM     34  C   UNL     1      37.071 -13.736  34.863  1.00  0.00    +0.000 A 
ATOM     35  C   UNL     1      37.021 -12.244  34.846  1.00  0.00    +0.000 A 
ENDBRANCH  29  30
ENDBRANCH   5  29
ENDBRANCH   1   5
BRANCH   2  36
ATOM     36  C   UNL     1      35.080 -13.320  29.841  1.00  0.00    +0.176 C 
BRANCH  36  37
ATOM     37  C   UNL     1      34.299 -12.240  30.869  1.00  0.00    +0.015 C 
ATOM     38  C   UNL     1      33.161 -11.255  30.383  1.00  0.00    +0.010 C 
ATOM     39  C   UNL     1      34.238 -12.569  32.438  1.00  0.00    +0.010 C 
ENDBRANCH  36  37
BRANCH  36  40
ATOM     40  N   UNL     1      34.712 -14.472  30.337  1.00  0.00    -0.326 N 
ATOM     41  C   UNL     1      33.593 -15.051  29.502  1.00  0.00    +0.318 C 
ATOM     42  O   UNL     1      33.100 -14.326  28.451  1.00  0.00    -0.249 OA
ATOM     43  H   UNL     1      35.103 -14.898  31.133  1.00  0.00    +0.166 HD
BRANCH  41  44
ATOM     44  N   UNL     1      33.065 -16.352  29.798  1.00  0.00    -0.322 N 
ATOM     45  C   UNL     1      32.207 -17.042  28.792  1.00  0.00    +0.149 C 
BRANCH  44  46
ATOM     46  C   UNL     1      33.411 -17.075  31.140  1.00  0.00    +0.178 C 
BRANCH  46  47
ATOM     47  C   UNL     1      34.171 -18.364  30.876  1.00  0.00    +0.071 A 
ATOM     48  C   UNL     1      35.293 -18.426  30.142  1.00  0.00    +0.092 A 
ATOM     49  N   UNL     1      33.703 -19.492  31.403  1.00  0.00    -0.244 NA
ATOM     50  S   UNL     1      35.618 -20.191  30.265  1.00  0.00    -0.127 S 
ATOM     51  C   UNL     1      34.236 -20.617  31.247  1.00  0.00    +0.095 A 
BRANCH  51  52
ATOM     52  C   UNL     1      33.606 -21.970  31.845  1.00  0.00    +0.042 C 
ATOM     53  C   UNL     1      34.630 -22.994  32.227  1.00  0.00    +0.015 C 
ATOM     54  C   UNL     1      32.629 -21.738  32.980  1.00  0.00    +0.015 C 
ENDBRANCH  51  52
ENDBRANCH  46  47
ENDBRANCH  44  46
ENDBRANCH  41  44
ENDBRANCH  36  40
ENDBRANCH   2  36
TORSDOF 19
ENDMDL
