REMARK SMILES N[C@@H](CC(=O)N1CCn2c(nnc2C(F)(F)F)C1)Cc1cc(F)c(F)cc1F
REMARK SMILES IDX 3 1 4 2 5 3 6 4 13 5 9 6 12 7 8 8 10 9 11 10 7 11 18 12
REMARK SMILES IDX 14 13 15 14 16 15 17 16 2 17 1 18 19 21 20 22 27 23 21 24
REMARK SMILES IDX 26 25 22 26 24 27 28 28 23 29 25 30
REMARK H PARENT 1 19 1 20
ROOT
ATOM      1  C   UNL     1      -0.602   1.113  -0.560  1.00  0.00    +0.119 C 
ENDROOT
BRANCH   1   2
ATOM      2  C   UNL     1       0.184  -0.159  -0.265  1.00  0.00    +0.224 C 
ATOM      3  O   UNL     1      -0.345  -1.268  -0.313  1.00  0.00    -0.275 OA
BRANCH   2   4
ATOM      4  N   UNL     1       1.537  -0.010   0.032  1.00  0.00    -0.333 N 
ATOM      5  C   UNL     1       5.655   0.388   0.028  1.00  0.00    +0.238 A 
ATOM      6  N   UNL     1       4.327   0.066   0.049  1.00  0.00    -0.304 N 
ATOM      7  N   UNL     1       5.762   1.692   0.217  1.00  0.00    -0.125 NA
ATOM      8  C   UNL     1       3.691  -1.222  -0.122  1.00  0.00    +0.147 C 
ATOM      9  C   UNL     1       3.635   1.230   0.239  1.00  0.00    +0.153 A 
ATOM     10  N   UNL     1       4.496   2.217   0.349  1.00  0.00    -0.133 NA
ATOM     11  C   UNL     1       2.283  -1.200   0.465  1.00  0.00    +0.142 C 
ATOM     12  C   UNL     1       2.152   1.295   0.317  1.00  0.00    +0.197 C 
BRANCH   5  13
ATOM     13  C   UNL     1       6.734  -0.608  -0.176  1.00  0.00    +0.451 C 
ATOM     14  F   UNL     1       7.965  -0.060  -0.312  1.00  0.00    -0.163 F 
ATOM     15  F   UNL     1       6.799  -1.485   0.862  1.00  0.00    -0.163 F 
ATOM     16  F   UNL     1       6.509  -1.359  -1.288  1.00  0.00    -0.163 F 
ENDBRANCH   5  13
ENDBRANCH   2   4
ENDBRANCH   1   2
BRANCH   1  17
ATOM     17  C   UNL     1      -2.103   0.863  -0.798  1.00  0.00    +0.064 C 
BRANCH  17  18
ATOM     18  N   UNL     1      -2.708   2.081  -1.374  1.00  0.00    -0.327 NA
ATOM     19  H   UNL     1      -2.289   2.282  -2.281  1.00  0.00    +0.119 HD
ATOM     20  H   UNL     1      -2.527   2.889  -0.781  1.00  0.00    +0.119 HD
ENDBRANCH  17  18
BRANCH  17  21
ATOM     21  C   UNL     1      -2.832   0.489   0.517  1.00  0.00    +0.058 C 
BRANCH  21  22
ATOM     22  C   UNL     1      -4.286   0.126   0.322  1.00  0.00    -0.008 A 
ATOM     23  C   UNL     1      -4.644  -1.114  -0.226  1.00  0.00    +0.129 A 
ATOM     24  C   UNL     1      -5.304   1.026   0.668  1.00  0.00    +0.049 A 
ATOM     25  C   UNL     1      -5.975  -1.466  -0.425  1.00  0.00    +0.082 A 
ATOM     26  C   UNL     1      -6.637   0.676   0.467  1.00  0.00    +0.159 A 
ATOM     27  C   UNL     1      -6.968  -0.562  -0.075  1.00  0.00    +0.161 A 
ATOM     28  F   UNL     1      -3.690  -1.992  -0.565  1.00  0.00    -0.207 F 
ATOM     29  F   UNL     1      -7.602   1.544   0.803  1.00  0.00    -0.204 F 
ATOM     30  F   UNL     1      -8.253  -0.893  -0.263  1.00  0.00    -0.204 F 
ENDBRANCH  21  22
ENDBRANCH  17  21
ENDBRANCH   1  17
TORSDOF 7
