MODEL 1
REMARK VINA RESULT:    -8.958      0.000      0.000
REMARK INTER + INTRA:         -13.195
REMARK INTER:                 -12.362
REMARK INTRA:                  -0.833
REMARK UNBOUND:                -0.833
REMARK SMILES N[C@@H](CC(=O)N1CCn2c(nnc2C(F)(F)F)C1)Cc1cc(F)c(F)cc1F
REMARK SMILES IDX 3 1 4 2 5 3 6 4 13 5 9 6 12 7 8 8 10 9 11 10 7 11 18 12
REMARK SMILES IDX 14 13 15 14 16 15 17 16 2 17 1 18 19 21 20 22 27 23 21 24
REMARK SMILES IDX 26 25 22 26 24 27 28 28 23 29 25 30
REMARK H PARENT 1 19 1 20
ROOT
ATOM      1  C   UNL     1      40.441  50.988  36.731  1.00  0.00    +0.119 C 
ENDROOT
BRANCH   1   2
ATOM      2  C   UNL     1      41.268  52.171  36.242  1.00  0.00    +0.224 C 
ATOM      3  O   UNL     1      40.814  53.314  36.235  1.00  0.00    -0.275 OA
BRANCH   2   4
ATOM      4  N   UNL     1      42.572  51.902  35.832  1.00  0.00    -0.333 N 
ATOM      5  C   UNL     1      46.581  51.965  34.811  1.00  0.00    +0.238 A 
ATOM      6  N   UNL     1      45.223  51.986  34.961  1.00  0.00    -0.304 N 
ATOM      7  N   UNL     1      47.101  51.388  35.880  1.00  0.00    -0.125 NA
ATOM      8  C   UNL     1      44.208  52.518  34.078  1.00  0.00    +0.147 C 
ATOM      9  C   UNL     1      44.945  51.416  36.173  1.00  0.00    +0.153 A 
ATOM     10  N   UNL     1      46.075  51.045  36.731  1.00  0.00    -0.133 NA
ATOM     11  C   UNL     1      42.853  51.891  34.389  1.00  0.00    +0.142 C 
ATOM     12  C   UNL     1      43.565  51.256  36.703  1.00  0.00    +0.197 C 
BRANCH   5  13
ATOM     13  C   UNL     1      47.280  52.514  33.624  1.00  0.00    +0.451 C 
ATOM     14  F   UNL     1      46.812  52.038  32.446  1.00  0.00    -0.163 F 
ATOM     15  F   UNL     1      47.180  53.870  33.576  1.00  0.00    -0.163 F 
ATOM     16  F   UNL     1      48.611  52.237  33.663  1.00  0.00    -0.163 F 
ENDBRANCH   5  13
ENDBRANCH   2   4
ENDBRANCH   1   2
BRANCH   1  17
ATOM     17  C   UNL     1      39.131  50.791  35.946  1.00  0.00    +0.064 C 
BRANCH  17  18
ATOM     18  N   UNL     1      39.203  51.563  34.689  1.00  0.00    -0.327 NA
ATOM     19  H   UNL     1      39.495  52.520  34.885  1.00  0.00    +0.119 HD
ATOM     20  H   UNL     1      38.287  51.620  34.247  1.00  0.00    +0.119 HD
ENDBRANCH  17  18
BRANCH  17  21
ATOM     21  C   UNL     1      37.901  51.247  36.770  1.00  0.00    +0.058 C 
BRANCH  21  22
ATOM     22  C   UNL     1      36.707  50.330  36.637  1.00  0.00    -0.008 A 
ATOM     23  C   UNL     1      35.419  50.785  36.949  1.00  0.00    +0.129 A 
ATOM     24  C   UNL     1      36.866  49.002  36.215  1.00  0.00    +0.049 A 
ATOM     25  C   UNL     1      34.307  49.956  36.845  1.00  0.00    +0.082 A 
ATOM     26  C   UNL     1      35.754  48.169  36.113  1.00  0.00    +0.159 A 
ATOM     27  C   UNL     1      34.484  48.645  36.425  1.00  0.00    +0.161 A 
ATOM     28  F   UNL     1      35.241  52.050  37.354  1.00  0.00    -0.207 F 
ATOM     29  F   UNL     1      35.917  46.902  35.708  1.00  0.00    -0.204 F 
ATOM     30  F   UNL     1      33.418  47.839  36.322  1.00  0.00    -0.204 F 
ENDBRANCH  21  22
ENDBRANCH  17  21
ENDBRANCH   1  17
TORSDOF 7
ENDMDL
MODEL 2
REMARK VINA RESULT:    -8.806      2.489      9.695
REMARK INTER + INTRA:         -12.985
REMARK INTER:                 -12.599
REMARK INTRA:                  -0.386
REMARK UNBOUND:                -0.833
REMARK SMILES N[C@@H](CC(=O)N1CCn2c(nnc2C(F)(F)F)C1)Cc1cc(F)c(F)cc1F
REMARK SMILES IDX 3 1 4 2 5 3 6 4 13 5 9 6 12 7 8 8 10 9 11 10 7 11 18 12
REMARK SMILES IDX 14 13 15 14 16 15 17 16 2 17 1 18 19 21 20 22 27 23 21 24
REMARK SMILES IDX 26 25 22 26 24 27 28 28 23 29 25 30
REMARK H PARENT 1 19 1 20
ROOT
ATOM      1  C   UNL     1      40.809  52.547  37.268  1.00  0.00    +0.119 C 
ENDROOT
BRANCH   1   2
ATOM      2  C   UNL     1      40.250  51.186  37.666  1.00  0.00    +0.224 C 
ATOM      3  O   UNL     1      40.855  50.443  38.436  1.00  0.00    -0.275 OA
BRANCH   2   4
ATOM      4  N   UNL     1      39.008  50.836  37.140  1.00  0.00    -0.333 N 
ATOM      5  C   UNL     1      35.229  49.352  36.349  1.00  0.00    +0.238 A 
ATOM      6  N   UNL     1      36.543  49.684  36.519  1.00  0.00    -0.304 N 
ATOM      7  N   UNL     1      34.500  50.425  36.602  1.00  0.00    -0.125 NA
ATOM      8  C   UNL     1      37.725  48.861  36.375  1.00  0.00    +0.147 C 
ATOM      9  C   UNL     1      36.579  50.995  36.905  1.00  0.00    +0.153 A 
ATOM     10  N   UNL     1      35.348  51.453  36.950  1.00  0.00    -0.133 NA
ATOM     11  C   UNL     1      38.957  49.736  36.167  1.00  0.00    +0.142 C 
ATOM     12  C   UNL     1      37.840  51.728  37.192  1.00  0.00    +0.197 C 
BRANCH   5  13
ATOM     13  C   UNL     1      34.773  47.999  35.947  1.00  0.00    +0.451 C 
ATOM     14  F   UNL     1      35.706  47.033  36.123  1.00  0.00    -0.163 F 
ATOM     15  F   UNL     1      33.669  47.622  36.647  1.00  0.00    -0.163 F 
ATOM     16  F   UNL     1      34.414  47.969  34.635  1.00  0.00    -0.163 F 
ENDBRANCH   5  13
ENDBRANCH   2   4
ENDBRANCH   1   2
BRANCH   1  17
ATOM     17  C   UNL     1      41.524  52.540  35.904  1.00  0.00    +0.064 C 
BRANCH  17  18
ATOM     18  N   UNL     1      40.518  52.691  34.833  1.00  0.00    -0.327 NA
ATOM     19  H   UNL     1      40.779  52.123  34.028  1.00  0.00    +0.119 HD
ATOM     20  H   UNL     1      40.476  53.656  34.511  1.00  0.00    +0.119 HD
ENDBRANCH  17  18
BRANCH  17  21
ATOM     21  C   UNL     1      42.324  51.231  35.689  1.00  0.00    +0.058 C 
BRANCH  21  22
ATOM     22  C   UNL     1      43.808  51.450  35.507  1.00  0.00    -0.008 A 
ATOM     23  C   UNL     1      44.712  51.079  36.513  1.00  0.00    +0.129 A 
ATOM     24  C   UNL     1      44.309  52.042  34.339  1.00  0.00    +0.049 A 
ATOM     25  C   UNL     1      46.081  51.281  36.372  1.00  0.00    +0.082 A 
ATOM     26  C   UNL     1      45.679  52.247  34.198  1.00  0.00    +0.159 A 
ATOM     27  C   UNL     1      46.557  51.867  35.208  1.00  0.00    +0.161 A 
ATOM     28  F   UNL     1      44.259  50.511  37.639  1.00  0.00    -0.207 F 
ATOM     29  F   UNL     1      46.147  52.813  33.076  1.00  0.00    -0.204 F 
ATOM     30  F   UNL     1      47.875  52.065  35.064  1.00  0.00    -0.204 F 
ENDBRANCH  21  22
ENDBRANCH  17  21
ENDBRANCH   1  17
TORSDOF 7
ENDMDL
MODEL 3
REMARK VINA RESULT:    -8.722      1.516      2.070
REMARK INTER + INTRA:         -12.869
REMARK INTER:                 -12.186
REMARK INTRA:                  -0.683
REMARK UNBOUND:                -0.833
REMARK SMILES N[C@@H](CC(=O)N1CCn2c(nnc2C(F)(F)F)C1)Cc1cc(F)c(F)cc1F
REMARK SMILES IDX 3 1 4 2 5 3 6 4 13 5 9 6 12 7 8 8 10 9 11 10 7 11 18 12
REMARK SMILES IDX 14 13 15 14 16 15 17 16 2 17 1 18 19 21 20 22 27 23 21 24
REMARK SMILES IDX 26 25 22 26 24 27 28 28 23 29 25 30
REMARK H PARENT 1 19 1 20
ROOT
ATOM      1  C   UNL     1      40.775  51.357  35.946  1.00  0.00    +0.119 C 
ENDROOT
BRANCH   1   2
ATOM      2  C   UNL     1      41.837  50.927  34.941  1.00  0.00    +0.224 C 
ATOM      3  O   UNL     1      41.596  50.098  34.065  1.00  0.00    -0.275 OA
BRANCH   2   4
ATOM      4  N   UNL     1      43.085  51.537  35.042  1.00  0.00    -0.333 N 
ATOM      5  C   UNL     1      47.083  52.599  34.957  1.00  0.00    +0.238 A 
ATOM      6  N   UNL     1      45.799  52.179  35.163  1.00  0.00    -0.304 N 
ATOM      7  N   UNL     1      47.084  53.416  33.918  1.00  0.00    -0.125 NA
ATOM      8  C   UNL     1      45.278  51.273  36.163  1.00  0.00    +0.147 C 
ATOM      9  C   UNL     1      45.027  52.760  34.195  1.00  0.00    +0.153 A 
ATOM     10  N   UNL     1      45.796  53.515  33.443  1.00  0.00    -0.133 NA
ATOM     11  C   UNL     1      43.777  51.483  36.338  1.00  0.00    +0.142 C 
ATOM     12  C   UNL     1      43.561  52.544  34.081  1.00  0.00    +0.197 C 
BRANCH   5  13
ATOM     13  C   UNL     1      48.227  52.170  35.797  1.00  0.00    +0.451 C 
ATOM     14  F   UNL     1      48.415  50.829  35.820  1.00  0.00    -0.163 F 
ATOM     15  F   UNL     1      49.391  52.729  35.368  1.00  0.00    -0.163 F 
ATOM     16  F   UNL     1      48.071  52.571  37.087  1.00  0.00    -0.163 F 
ENDBRANCH   5  13
ENDBRANCH   2   4
ENDBRANCH   1   2
BRANCH   1  17
ATOM     17  C   UNL     1      39.386  50.753  35.664  1.00  0.00    +0.064 C 
BRANCH  17  18
ATOM     18  N   UNL     1      38.691  51.591  34.666  1.00  0.00    -0.327 NA
ATOM     19  H   UNL     1      38.139  51.003  34.042  1.00  0.00    +0.119 HD
ATOM     20  H   UNL     1      39.362  52.089  34.083  1.00  0.00    +0.119 HD
ENDBRANCH  17  18
BRANCH  17  21
ATOM     21  C   UNL     1      38.534  50.663  36.955  1.00  0.00    +0.058 C 
BRANCH  21  22
ATOM     22  C   UNL     1      37.152  50.095  36.730  1.00  0.00    -0.008 A 
ATOM     23  C   UNL     1      36.012  50.834  37.076  1.00  0.00    +0.129 A 
ATOM     24  C   UNL     1      36.981  48.813  36.188  1.00  0.00    +0.049 A 
ATOM     25  C   UNL     1      34.730  50.328  36.888  1.00  0.00    +0.082 A 
ATOM     26  C   UNL     1      35.699  48.303  36.002  1.00  0.00    +0.159 A 
ATOM     27  C   UNL     1      34.582  49.057  36.350  1.00  0.00    +0.161 A 
ATOM     28  F   UNL     1      36.148  52.062  37.595  1.00  0.00    -0.207 F 
ATOM     29  F   UNL     1      35.548  47.077  35.482  1.00  0.00    -0.204 F 
ATOM     30  F   UNL     1      33.351  48.562  36.165  1.00  0.00    -0.204 F 
ENDBRANCH  21  22
ENDBRANCH  17  21
ENDBRANCH   1  17
TORSDOF 7
ENDMDL
MODEL 4
REMARK VINA RESULT:    -8.593      2.589      9.355
REMARK INTER + INTRA:         -12.691
REMARK INTER:                 -12.352
REMARK INTRA:                  -0.339
REMARK UNBOUND:                -0.833
REMARK SMILES N[C@@H](CC(=O)N1CCn2c(nnc2C(F)(F)F)C1)Cc1cc(F)c(F)cc1F
REMARK SMILES IDX 3 1 4 2 5 3 6 4 13 5 9 6 12 7 8 8 10 9 11 10 7 11 18 12
REMARK SMILES IDX 14 13 15 14 16 15 17 16 2 17 1 18 19 21 20 22 27 23 21 24
REMARK SMILES IDX 26 25 22 26 24 27 28 28 23 29 25 30
REMARK H PARENT 1 19 1 20
ROOT
ATOM      1  C   UNL     1      39.961  50.973  38.892  1.00  0.00    +0.119 C 
ENDROOT
BRANCH   1   2
ATOM      2  C   UNL     1      39.320  51.687  37.708  1.00  0.00    +0.224 C 
ATOM      3  O   UNL     1      39.790  52.729  37.253  1.00  0.00    -0.275 OA
BRANCH   2   4
ATOM      4  N   UNL     1      38.193  51.091  37.146  1.00  0.00    -0.333 N 
ATOM      5  C   UNL     1      34.902  48.775  36.185  1.00  0.00    +0.238 A 
ATOM      6  N   UNL     1      36.091  49.417  36.392  1.00  0.00    -0.304 N 
ATOM      7  N   UNL     1      33.930  49.581  36.575  1.00  0.00    -0.125 NA
ATOM      8  C   UNL     1      37.439  48.957  36.139  1.00  0.00    +0.147 C 
ATOM      9  C   UNL     1      35.799  50.634  36.941  1.00  0.00    +0.153 A 
ATOM     10  N   UNL     1      34.494  50.744  37.048  1.00  0.00    -0.133 NA
ATOM     11  C   UNL     1      38.394  50.144  36.040  1.00  0.00    +0.142 C 
ATOM     12  C   UNL     1      36.836  51.632  37.315  1.00  0.00    +0.197 C 
BRANCH   5  13
ATOM     13  C   UNL     1      34.799  47.410  35.615  1.00  0.00    +0.451 C 
ATOM     14  F   UNL     1      33.806  46.665  36.157  1.00  0.00    -0.163 F 
ATOM     15  F   UNL     1      34.582  47.451  34.273  1.00  0.00    -0.163 F 
ATOM     16  F   UNL     1      35.956  46.715  35.786  1.00  0.00    -0.163 F 
ENDBRANCH   5  13
ENDBRANCH   2   4
ENDBRANCH   1   2
BRANCH   1  17
ATOM     17  C   UNL     1      41.483  50.787  38.741  1.00  0.00    +0.064 C 
BRANCH  17  18
ATOM     18  N   UNL     1      42.126  52.115  38.672  1.00  0.00    -0.327 NA
ATOM     19  H   UNL     1      41.557  52.803  39.164  1.00  0.00    +0.119 HD
ATOM     20  H   UNL     1      42.198  52.431  37.706  1.00  0.00    +0.119 HD
ENDBRANCH  17  18
BRANCH  17  21
ATOM     21  C   UNL     1      41.833  49.970  37.472  1.00  0.00    +0.058 C 
BRANCH  21  22
ATOM     22  C   UNL     1      42.821  50.659  36.560  1.00  0.00    -0.008 A 
ATOM     23  C   UNL     1      42.412  51.167  35.319  1.00  0.00    +0.129 A 
ATOM     24  C   UNL     1      44.168  50.790  36.928  1.00  0.00    +0.049 A 
ATOM     25  C   UNL     1      43.305  51.796  34.458  1.00  0.00    +0.082 A 
ATOM     26  C   UNL     1      45.064  51.418  36.066  1.00  0.00    +0.159 A 
ATOM     27  C   UNL     1      44.634  51.917  34.841  1.00  0.00    +0.161 A 
ATOM     28  F   UNL     1      41.130  51.055  34.944  1.00  0.00    -0.207 F 
ATOM     29  F   UNL     1      46.349  51.538  36.429  1.00  0.00    -0.204 F 
ATOM     30  F   UNL     1      45.502  52.522  34.018  1.00  0.00    -0.204 F 
ENDBRANCH  21  22
ENDBRANCH  17  21
ENDBRANCH   1  17
TORSDOF 7
ENDMDL
MODEL 5
REMARK VINA RESULT:    -8.252      1.562      2.143
REMARK INTER + INTRA:         -12.220
REMARK INTER:                 -11.317
REMARK INTRA:                  -0.903
REMARK UNBOUND:                -0.833
REMARK SMILES N[C@@H](CC(=O)N1CCn2c(nnc2C(F)(F)F)C1)Cc1cc(F)c(F)cc1F
REMARK SMILES IDX 3 1 4 2 5 3 6 4 13 5 9 6 12 7 8 8 10 9 11 10 7 11 18 12
REMARK SMILES IDX 14 13 15 14 16 15 17 16 2 17 1 18 19 21 20 22 27 23 21 24
REMARK SMILES IDX 26 25 22 26 24 27 28 28 23 29 25 30
REMARK H PARENT 1 19 1 20
ROOT
ATOM      1  C   UNL     1      39.691  51.666  37.115  1.00  0.00    +0.119 C 
ENDROOT
BRANCH   1   2
ATOM      2  C   UNL     1      41.047  51.677  37.812  1.00  0.00    +0.224 C 
ATOM      3  O   UNL     1      41.158  51.405  39.006  1.00  0.00    -0.275 OA
BRANCH   2   4
ATOM      4  N   UNL     1      42.157  51.979  37.027  1.00  0.00    -0.333 N 
ATOM      5  C   UNL     1      45.655  52.015  34.818  1.00  0.00    +0.238 A 
ATOM      6  N   UNL     1      44.610  52.056  35.698  1.00  0.00    -0.304 N 
ATOM      7  N   UNL     1      45.156  51.977  33.594  1.00  0.00    -0.125 NA
ATOM      8  C   UNL     1      44.628  52.096  37.144  1.00  0.00    +0.147 C 
ATOM      9  C   UNL     1      43.461  52.022  34.958  1.00  0.00    +0.153 A 
ATOM     10  N   UNL     1      43.783  51.981  33.685  1.00  0.00    -0.133 NA
ATOM     11  C   UNL     1      43.303  52.632  37.676  1.00  0.00    +0.142 C 
ATOM     12  C   UNL     1      42.102  52.048  35.560  1.00  0.00    +0.197 C 
BRANCH   5  13
ATOM     13  C   UNL     1      47.077  52.016  35.237  1.00  0.00    +0.451 C 
ATOM     14  F   UNL     1      47.431  53.102  35.964  1.00  0.00    -0.163 F 
ATOM     15  F   UNL     1      47.372  50.920  35.986  1.00  0.00    -0.163 F 
ATOM     16  F   UNL     1      47.909  51.970  34.162  1.00  0.00    -0.163 F 
ENDBRANCH   5  13
ENDBRANCH   2   4
ENDBRANCH   1   2
BRANCH   1  17
ATOM     17  C   UNL     1      39.022  50.279  37.101  1.00  0.00    +0.064 C 
BRANCH  17  18
ATOM     18  N   UNL     1      40.066  49.240  37.212  1.00  0.00    -0.327 NA
ATOM     19  H   UNL     1      40.117  48.899  38.171  1.00  0.00    +0.119 HD
ATOM     20  H   UNL     1      40.982  49.624  36.987  1.00  0.00    +0.119 HD
ENDBRANCH  17  18
BRANCH  17  21
ATOM     21  C   UNL     1      38.201  50.058  35.805  1.00  0.00    +0.058 C 
BRANCH  21  22
ATOM     22  C   UNL     1      36.773  49.633  36.058  1.00  0.00    -0.008 A 
ATOM     23  C   UNL     1      35.853  50.527  36.625  1.00  0.00    +0.129 A 
ATOM     24  C   UNL     1      36.343  48.335  35.749  1.00  0.00    +0.049 A 
ATOM     25  C   UNL     1      34.536  50.156  36.877  1.00  0.00    +0.082 A 
ATOM     26  C   UNL     1      35.026  47.961  36.003  1.00  0.00    +0.159 A 
ATOM     27  C   UNL     1      34.130  48.867  36.562  1.00  0.00    +0.161 A 
ATOM     28  F   UNL     1      36.238  51.774  36.929  1.00  0.00    -0.207 F 
ATOM     29  F   UNL     1      34.627  46.717  35.701  1.00  0.00    -0.204 F 
ATOM     30  F   UNL     1      32.863  48.500  36.801  1.00  0.00    -0.204 F 
ENDBRANCH  21  22
ENDBRANCH  17  21
ENDBRANCH   1  17
TORSDOF 7
ENDMDL
MODEL 6
REMARK VINA RESULT:    -8.230      3.317      3.905
REMARK INTER + INTRA:         -12.190
REMARK INTER:                 -11.584
REMARK INTRA:                  -0.606
REMARK UNBOUND:                -0.833
REMARK SMILES N[C@@H](CC(=O)N1CCn2c(nnc2C(F)(F)F)C1)Cc1cc(F)c(F)cc1F
REMARK SMILES IDX 3 1 4 2 5 3 6 4 13 5 9 6 12 7 8 8 10 9 11 10 7 11 18 12
REMARK SMILES IDX 14 13 15 14 16 15 17 16 2 17 1 18 19 21 20 22 27 23 21 24
REMARK SMILES IDX 26 25 22 26 24 27 28 28 23 29 25 30
REMARK H PARENT 1 19 1 20
ROOT
ATOM      1  C   UNL     1      40.583  51.806  35.748  1.00  0.00    +0.119 C 
ENDROOT
BRANCH   1   2
ATOM      2  C   UNL     1      41.887  51.103  35.389  1.00  0.00    +0.224 C 
ATOM      3  O   UNL     1      42.112  50.707  34.247  1.00  0.00    -0.275 OA
BRANCH   2   4
ATOM      4  N   UNL     1      42.826  50.957  36.408  1.00  0.00    -0.333 N 
ATOM      5  C   UNL     1      45.637  49.675  39.160  1.00  0.00    +0.238 A 
ATOM      6  N   UNL     1      44.576  50.058  38.388  1.00  0.00    -0.304 N 
ATOM      7  N   UNL     1      46.740  50.137  38.598  1.00  0.00    -0.125 NA
ATOM      8  C   UNL     1      43.165  49.792  38.567  1.00  0.00    +0.147 C 
ATOM      9  C   UNL     1      45.084  50.754  37.326  1.00  0.00    +0.153 A 
ATOM     10  N   UNL     1      46.391  50.813  37.450  1.00  0.00    -0.133 NA
ATOM     11  C   UNL     1      42.333  50.802  37.784  1.00  0.00    +0.142 C 
ATOM     12  C   UNL     1      44.238  51.337  36.252  1.00  0.00    +0.197 C 
BRANCH   5  13
ATOM     13  C   UNL     1      45.497  48.878  40.403  1.00  0.00    +0.451 C 
ATOM     14  F   UNL     1      44.642  49.418  41.304  1.00  0.00    -0.163 F 
ATOM     15  F   UNL     1      45.054  47.620  40.136  1.00  0.00    -0.163 F 
ATOM     16  F   UNL     1      46.694  48.729  41.031  1.00  0.00    -0.163 F 
ENDBRANCH   5  13
ENDBRANCH   2   4
ENDBRANCH   1   2
BRANCH   1  17
ATOM     17  C   UNL     1      39.336  50.929  35.528  1.00  0.00    +0.064 C 
BRANCH  17  18
ATOM     18  N   UNL     1      38.452  51.589  34.546  1.00  0.00    -0.327 NA
ATOM     19  H   UNL     1      38.074  50.898  33.899  1.00  0.00    +0.119 HD
ATOM     20  H   UNL     1      38.973  52.262  33.986  1.00  0.00    +0.119 HD
ENDBRANCH  17  18
BRANCH  17  21
ATOM     21  C   UNL     1      38.565  50.696  36.851  1.00  0.00    +0.058 C 
BRANCH  21  22
ATOM     22  C   UNL     1      37.168  50.155  36.652  1.00  0.00    -0.008 A 
ATOM     23  C   UNL     1      36.050  50.914  37.025  1.00  0.00    +0.129 A 
ATOM     24  C   UNL     1      36.963  48.879  36.108  1.00  0.00    +0.049 A 
ATOM     25  C   UNL     1      34.755  50.432  36.861  1.00  0.00    +0.082 A 
ATOM     26  C   UNL     1      35.667  48.394  35.946  1.00  0.00    +0.159 A 
ATOM     27  C   UNL     1      34.572  49.167  36.320  1.00  0.00    +0.161 A 
ATOM     28  F   UNL     1      36.219  52.136  37.547  1.00  0.00    -0.207 F 
ATOM     29  F   UNL     1      35.483  47.174  35.423  1.00  0.00    -0.204 F 
ATOM     30  F   UNL     1      33.328  48.696  36.158  1.00  0.00    -0.204 F 
ENDBRANCH  21  22
ENDBRANCH  17  21
ENDBRANCH   1  17
TORSDOF 7
ENDMDL
MODEL 7
REMARK VINA RESULT:    -8.109      4.962      6.204
REMARK INTER + INTRA:         -12.023
REMARK INTER:                 -11.056
REMARK INTRA:                  -0.967
REMARK UNBOUND:                -0.833
REMARK SMILES N[C@@H](CC(=O)N1CCn2c(nnc2C(F)(F)F)C1)Cc1cc(F)c(F)cc1F
REMARK SMILES IDX 3 1 4 2 5 3 6 4 13 5 9 6 12 7 8 8 10 9 11 10 7 11 18 12
REMARK SMILES IDX 14 13 15 14 16 15 17 16 2 17 1 18 19 21 20 22 27 23 21 24
REMARK SMILES IDX 26 25 22 26 24 27 28 28 23 29 25 30
REMARK H PARENT 1 19 1 20
ROOT
ATOM      1  C   UNL     1      40.797  50.167  36.143  1.00  0.00    +0.119 C 
ENDROOT
BRANCH   1   2
ATOM      2  C   UNL     1      41.444  51.044  37.208  1.00  0.00    +0.224 C 
ATOM      3  O   UNL     1      41.704  52.227  36.997  1.00  0.00    -0.275 OA
BRANCH   2   4
ATOM      4  N   UNL     1      41.701  50.451  38.442  1.00  0.00    -0.333 N 
ATOM      5  C   UNL     1      41.683  48.281  41.965  1.00  0.00    +0.238 A 
ATOM      6  N   UNL     1      41.603  49.139  40.904  1.00  0.00    -0.304 N 
ATOM      7  N   UNL     1      42.525  47.314  41.645  1.00  0.00    -0.125 NA
ATOM      8  C   UNL     1      40.814  50.341  40.752  1.00  0.00    +0.147 C 
ATOM      9  C   UNL     1      42.416  48.641  39.923  1.00  0.00    +0.153 A 
ATOM     10  N   UNL     1      42.983  47.541  40.367  1.00  0.00    -0.133 NA
ATOM     11  C   UNL     1      41.400  51.225  39.655  1.00  0.00    +0.142 C 
ATOM     12  C   UNL     1      42.597  49.296  38.602  1.00  0.00    +0.197 C 
BRANCH   5  13
ATOM     13  C   UNL     1      40.926  48.469  43.225  1.00  0.00    +0.451 C 
ATOM     14  F   UNL     1      41.366  49.504  43.979  1.00  0.00    -0.163 F 
ATOM     15  F   UNL     1      39.605  48.685  42.981  1.00  0.00    -0.163 F 
ATOM     16  F   UNL     1      40.985  47.356  44.007  1.00  0.00    -0.163 F 
ENDBRANCH   5  13
ENDBRANCH   2   4
ENDBRANCH   1   2
BRANCH   1  17
ATOM     17  C   UNL     1      39.401  50.656  35.713  1.00  0.00    +0.064 C 
BRANCH  17  18
ATOM     18  N   UNL     1      39.535  51.967  35.047  1.00  0.00    -0.327 NA
ATOM     19  H   UNL     1      40.256  51.921  34.329  1.00  0.00    +0.119 HD
ATOM     20  H   UNL     1      39.827  52.681  35.712  1.00  0.00    +0.119 HD
ENDBRANCH  17  18
BRANCH  17  21
ATOM     21  C   UNL     1      38.445  50.781  36.926  1.00  0.00    +0.058 C 
BRANCH  21  22
ATOM     22  C   UNL     1      37.078  50.183  36.685  1.00  0.00    -0.008 A 
ATOM     23  C   UNL     1      35.920  50.872  37.072  1.00  0.00    +0.129 A 
ATOM     24  C   UNL     1      36.940  48.923  36.086  1.00  0.00    +0.049 A 
ATOM     25  C   UNL     1      34.652  50.338  36.871  1.00  0.00    +0.082 A 
ATOM     26  C   UNL     1      35.671  48.385  35.886  1.00  0.00    +0.159 A 
ATOM     27  C   UNL     1      34.536  49.090  36.275  1.00  0.00    +0.161 A 
ATOM     28  F   UNL     1      36.025  52.079  37.647  1.00  0.00    -0.207 F 
ATOM     29  F   UNL     1      35.552  47.180  35.311  1.00  0.00    -0.204 F 
ATOM     30  F   UNL     1      33.318  48.567  36.077  1.00  0.00    -0.204 F 
ENDBRANCH  21  22
ENDBRANCH  17  21
ENDBRANCH   1  17
TORSDOF 7
ENDMDL
MODEL 8
REMARK VINA RESULT:    -7.918      6.215      8.968
REMARK INTER + INTRA:         -11.759
REMARK INTER:                 -11.098
REMARK INTRA:                  -0.661
REMARK UNBOUND:                -0.833
REMARK SMILES N[C@@H](CC(=O)N1CCn2c(nnc2C(F)(F)F)C1)Cc1cc(F)c(F)cc1F
REMARK SMILES IDX 3 1 4 2 5 3 6 4 13 5 9 6 12 7 8 8 10 9 11 10 7 11 18 12
REMARK SMILES IDX 14 13 15 14 16 15 17 16 2 17 1 18 19 21 20 22 27 23 21 24
REMARK SMILES IDX 26 25 22 26 24 27 28 28 23 29 25 30
REMARK H PARENT 1 19 1 20
ROOT
ATOM      1  C   UNL     1      39.218  52.110  39.547  1.00  0.00    +0.119 C 
ENDROOT
BRANCH   1   2
ATOM      2  C   UNL     1      39.517  51.236  38.335  1.00  0.00    +0.224 C 
ATOM      3  O   UNL     1      40.667  50.920  38.037  1.00  0.00    -0.275 OA
BRANCH   2   4
ATOM      4  N   UNL     1      38.424  50.786  37.597  1.00  0.00    -0.333 N 
ATOM      5  C   UNL     1      35.023  48.946  36.127  1.00  0.00    +0.238 A 
ATOM      6  N   UNL     1      36.245  49.410  36.526  1.00  0.00    -0.304 N 
ATOM      7  N   UNL     1      34.139  49.911  36.311  1.00  0.00    -0.125 NA
ATOM      8  C   UNL     1      37.525  48.737  36.535  1.00  0.00    +0.147 C 
ATOM      9  C   UNL     1      36.060  50.688  36.977  1.00  0.00    +0.153 A 
ATOM     10  N   UNL     1      34.791  51.001  36.844  1.00  0.00    -0.133 NA
ATOM     11  C   UNL     1      38.660  49.757  36.574  1.00  0.00    +0.142 C 
ATOM     12  C   UNL     1      37.163  51.536  37.502  1.00  0.00    +0.197 C 
BRANCH   5  13
ATOM     13  C   UNL     1      34.803  47.582  35.589  1.00  0.00    +0.451 C 
ATOM     14  F   UNL     1      35.890  46.779  35.676  1.00  0.00    -0.163 F 
ATOM     15  F   UNL     1      33.787  46.953  36.238  1.00  0.00    -0.163 F 
ATOM     16  F   UNL     1      34.443  47.621  34.277  1.00  0.00    -0.163 F 
ENDBRANCH   5  13
ENDBRANCH   2   4
ENDBRANCH   1   2
BRANCH   1  17
ATOM     17  C   UNL     1      39.017  51.308  40.846  1.00  0.00    +0.064 C 
BRANCH  17  18
ATOM     18  N   UNL     1      39.972  50.181  40.868  1.00  0.00    -0.327 NA
ATOM     19  H   UNL     1      39.982  49.752  41.792  1.00  0.00    +0.119 HD
ATOM     20  H   UNL     1      40.919  50.508  40.685  1.00  0.00    +0.119 HD
ENDBRANCH  17  18
BRANCH  17  21
ATOM     21  C   UNL     1      37.569  50.768  40.961  1.00  0.00    +0.058 C 
BRANCH  21  22
ATOM     22  C   UNL     1      36.736  51.484  41.998  1.00  0.00    -0.008 A 
ATOM     23  C   UNL     1      36.425  50.864  43.216  1.00  0.00    +0.129 A 
ATOM     24  C   UNL     1      36.243  52.775  41.757  1.00  0.00    +0.049 A 
ATOM     25  C   UNL     1      35.651  51.499  44.182  1.00  0.00    +0.082 A 
ATOM     26  C   UNL     1      35.465  53.411  42.722  1.00  0.00    +0.159 A 
ATOM     27  C   UNL     1      35.173  52.776  43.925  1.00  0.00    +0.161 A 
ATOM     28  F   UNL     1      36.884  49.630  43.471  1.00  0.00    -0.207 F 
ATOM     29  F   UNL     1      35.001  54.646  42.481  1.00  0.00    -0.204 F 
ATOM     30  F   UNL     1      34.427  53.396  44.849  1.00  0.00    -0.204 F 
ENDBRANCH  21  22
ENDBRANCH  17  21
ENDBRANCH   1  17
TORSDOF 7
ENDMDL
MODEL 9
REMARK VINA RESULT:    -7.890      4.567     11.235
REMARK INTER + INTRA:         -11.721
REMARK INTER:                 -10.756
REMARK INTRA:                  -0.964
REMARK UNBOUND:                -0.833
REMARK SMILES N[C@@H](CC(=O)N1CCn2c(nnc2C(F)(F)F)C1)Cc1cc(F)c(F)cc1F
REMARK SMILES IDX 3 1 4 2 5 3 6 4 13 5 9 6 12 7 8 8 10 9 11 10 7 11 18 12
REMARK SMILES IDX 14 13 15 14 16 15 17 16 2 17 1 18 19 21 20 22 27 23 21 24
REMARK SMILES IDX 26 25 22 26 24 27 28 28 23 29 25 30
REMARK H PARENT 1 19 1 20
ROOT
ATOM      1  C   UNL     1      48.418  52.252  36.250  1.00  0.00    +0.119 C 
ENDROOT
BRANCH   1   2
ATOM      2  C   UNL     1      47.283  52.897  35.462  1.00  0.00    +0.224 C 
ATOM      3  O   UNL     1      47.432  53.971  34.882  1.00  0.00    -0.275 OA
BRANCH   2   4
ATOM      4  N   UNL     1      46.079  52.199  35.405  1.00  0.00    -0.333 N 
ATOM      5  C   UNL     1      42.164  50.873  35.588  1.00  0.00    +0.238 A 
ATOM      6  N   UNL     1      43.479  51.230  35.703  1.00  0.00    -0.304 N 
ATOM      7  N   UNL     1      41.809  51.024  34.324  1.00  0.00    -0.125 NA
ATOM      8  C   UNL     1      44.326  51.252  36.875  1.00  0.00    +0.147 C 
ATOM      9  C   UNL     1      43.898  51.621  34.461  1.00  0.00    +0.153 A 
ATOM     10  N   UNL     1      42.896  51.492  33.620  1.00  0.00    -0.133 NA
ATOM     11  C   UNL     1      45.796  51.224  36.468  1.00  0.00    +0.142 C 
ATOM     12  C   UNL     1      45.280  52.087  34.175  1.00  0.00    +0.197 C 
BRANCH   5  13
ATOM     13  C   UNL     1      41.342  50.406  36.730  1.00  0.00    +0.451 C 
ATOM     14  F   UNL     1      41.173  51.337  37.699  1.00  0.00    -0.163 F 
ATOM     15  F   UNL     1      40.102  50.024  36.322  1.00  0.00    -0.163 F 
ATOM     16  F   UNL     1      41.895  49.313  37.322  1.00  0.00    -0.163 F 
ENDBRANCH   5  13
ENDBRANCH   2   4
ENDBRANCH   1   2
BRANCH   1  17
ATOM     17  C   UNL     1      49.481  51.586  35.356  1.00  0.00    +0.064 C 
BRANCH  17  18
ATOM     18  N   UNL     1      49.263  52.004  33.957  1.00  0.00    -0.327 NA
ATOM     19  H   UNL     1      49.722  52.898  33.786  1.00  0.00    +0.119 HD
ATOM     20  H   UNL     1      48.271  52.142  33.771  1.00  0.00    +0.119 HD
ENDBRANCH  17  18
BRANCH  17  21
ATOM     21  C   UNL     1      49.419  50.041  35.456  1.00  0.00    +0.058 C 
BRANCH  21  22
ATOM     22  C   UNL     1      50.775  49.376  35.424  1.00  0.00    -0.008 A 
ATOM     23  C   UNL     1      51.497  49.171  36.609  1.00  0.00    +0.129 A 
ATOM     24  C   UNL     1      51.347  48.967  34.211  1.00  0.00    +0.049 A 
ATOM     25  C   UNL     1      52.752  48.572  36.603  1.00  0.00    +0.082 A 
ATOM     26  C   UNL     1      52.605  48.369  34.204  1.00  0.00    +0.159 A 
ATOM     27  C   UNL     1      53.300  48.173  35.393  1.00  0.00    +0.161 A 
ATOM     28  F   UNL     1      50.973  49.553  37.782  1.00  0.00    -0.207 F 
ATOM     29  F   UNL     1      53.141  47.980  33.038  1.00  0.00    -0.204 F 
ATOM     30  F   UNL     1      54.509  47.594  35.378  1.00  0.00    -0.204 F 
ENDBRANCH  21  22
ENDBRANCH  17  21
ENDBRANCH   1  17
TORSDOF 7
ENDMDL
