MODEL 1
REMARK VINA RESULT:    -9.051      0.000      0.000
REMARK INTER + INTRA:         -13.297
REMARK INTER:                 -12.490
REMARK INTRA:                  -0.807
REMARK UNBOUND:                -0.807
REMARK SMILES N[C@@H](CC(=O)N1CCn2c(nnc2C(F)(F)F)C1)Cc1cc(F)c(F)cc1F
REMARK SMILES IDX 3 1 2 2 19 3 20 4 26 5 27 6 24 7 22 8 21 9 28 10 25 11 23 12
REMARK SMILES IDX 1 13 4 16 5 17 6 18 18 19 7 20 10 21 8 22 9 23 11 24 13 25
REMARK SMILES IDX 12 26 14 27 16 28 15 29 17 30
REMARK H PARENT 1 14 1 15
ROOT
ATOM      1  C   UNL     1      40.790  50.687  36.143  1.00  0.00    +0.119 C 
ENDROOT
BRANCH   1   2
ATOM      2  C   UNL     1      39.374  50.680  35.624  1.00  0.00    +0.064 C 
BRANCH   2   3
ATOM      3  C   UNL     1      38.446  50.858  36.843  1.00  0.00    +0.058 C 
BRANCH   3   4
ATOM      4  C   UNL     1      37.122  50.182  36.660  1.00  0.00    -0.008 A 
ATOM      5  C   UNL     1      34.621  50.340  36.913  1.00  0.00    +0.082 A 
ATOM      6  C   UNL     1      35.929  50.892  37.054  1.00  0.00    +0.129 A 
ATOM      7  C   UNL     1      34.514  49.041  36.352  1.00  0.00    +0.161 A 
ATOM      8  C   UNL     1      35.667  48.314  35.956  1.00  0.00    +0.159 A 
ATOM      9  C   UNL     1      36.981  48.869  36.096  1.00  0.00    +0.049 A 
ATOM     10  F   UNL     1      36.036  52.104  37.578  1.00  0.00    -0.207 F 
ATOM     11  F   UNL     1      33.330  48.516  36.211  1.00  0.00    -0.204 F 
ATOM     12  F   UNL     1      35.537  47.119  35.439  1.00  0.00    -0.204 F 
ENDBRANCH   3   4
ENDBRANCH   2   3
BRANCH   2  13
ATOM     13  N   UNL     1      39.173  51.795  34.698  1.00  0.00    -0.327 NA
ATOM     14  H   UNL     1      39.866  52.521  34.885  1.00  0.00    +0.119 HD
ATOM     15  H   UNL     1      38.236  52.178  34.825  1.00  0.00    +0.119 HD
ENDBRANCH   2  13
ENDBRANCH   1   2
BRANCH   1  16
ATOM     16  C   UNL     1      41.960  51.007  35.115  1.00  0.00    +0.224 C 
ATOM     17  O   UNL     1      41.941  50.470  33.992  1.00  0.00    -0.275 OA
BRANCH  16  18
ATOM     18  N   UNL     1      43.017  51.864  35.584  1.00  0.00    -0.333 N 
ATOM     19  C   UNL     1      43.956  51.069  36.541  1.00  0.00    +0.197 C 
ATOM     20  C   UNL     1      43.615  52.545  34.412  1.00  0.00    +0.142 C 
ATOM     21  C   UNL     1      45.471  51.304  36.365  1.00  0.00    +0.153 A 
ATOM     22  C   UNL     1      45.003  52.103  33.990  1.00  0.00    +0.147 C 
ATOM     23  N   UNL     1      45.883  51.786  35.153  1.00  0.00    -0.304 N 
ATOM     24  N   UNL     1      46.507  51.126  37.175  1.00  0.00    -0.133 NA
ATOM     25  C   UNL     1      47.219  51.866  35.308  1.00  0.00    +0.238 A 
ATOM     26  N   UNL     1      47.550  51.460  36.548  1.00  0.00    -0.125 NA
BRANCH  25  27
ATOM     27  C   UNL     1      48.235  52.340  34.264  1.00  0.00    +0.451 C 
ATOM     28  F   UNL     1      48.086  51.560  33.200  1.00  0.00    -0.163 F 
ATOM     29  F   UNL     1      47.965  53.585  33.978  1.00  0.00    -0.163 F 
ATOM     30  F   UNL     1      49.471  52.244  34.769  1.00  0.00    -0.163 F 
ENDBRANCH  25  27
ENDBRANCH  16  18
ENDBRANCH   1  16
TORSDOF 7
ENDMDL
