REMARK SMILES N[C@@H](CC(=O)N1CCn2c(nnc2C(F)(F)F)C1)Cc1cc(F)c(F)cc1F
REMARK SMILES IDX 3 1 2 2 19 3 20 4 26 5 27 6 24 7 22 8 21 9 28 10 25 11 23 12
REMARK SMILES IDX 1 13 4 16 5 17 6 18 18 19 7 20 10 21 8 22 9 23 11 24 13 25
REMARK SMILES IDX 12 26 14 27 16 28 15 29 17 30
REMARK H PARENT 1 14 1 15
ROOT
ATOM      1  C   UNL     1      40.380  51.831  35.445  1.00  0.00    +0.119 C 
ENDROOT
BRANCH   1   2
ATOM      2  C   UNL     1      39.093  51.076  35.223  1.00  0.00    +0.064 C 
BRANCH   2   3
ATOM      3  C   UNL     1      38.429  50.903  36.604  1.00  0.00    +0.058 C 
BRANCH   3   4
ATOM      4  C   UNL     1      37.081  50.257  36.515  1.00  0.00    -0.008 A 
ATOM      5  C   UNL     1      34.588  50.540  36.740  1.00  0.00    +0.082 A 
ATOM      6  C   UNL     1      35.916  51.058  36.804  1.00  0.00    +0.129 A 
ATOM      7  C   UNL     1      34.432  49.180  36.366  1.00  0.00    +0.161 A 
ATOM      8  C   UNL     1      35.556  48.363  36.077  1.00  0.00    +0.159 A 
ATOM      9  C   UNL     1      36.890  48.884  36.140  1.00  0.00    +0.049 A 
ATOM     10  F   UNL     1      36.068  52.327  37.154  1.00  0.00    -0.207 F 
ATOM     11  F   UNL     1      33.229  48.684  36.298  1.00  0.00    -0.204 F 
ATOM     12  F   UNL     1      35.381  47.113  35.732  1.00  0.00    -0.204 F 
ENDBRANCH   3   4
ENDBRANCH   2   3
BRANCH   2  13
ATOM     13  N   UNL     1      38.203  51.846  34.353  1.00  0.00    -0.327 NA
ATOM     14  H   UNL     1      38.010  52.752  34.781  1.00  0.00    +0.119 HD
ATOM     15  H   UNL     1      37.329  51.337  34.225  1.00  0.00    +0.119 HD
ENDBRANCH   2  13
ENDBRANCH   1   2
BRANCH   1  16
ATOM     16  C   UNL     1      41.576  51.071  36.167  1.00  0.00    +0.224 C 
ATOM     17  O   UNL     1      41.417  49.885  36.513  1.00  0.00    -0.275 OA
BRANCH  16  18
ATOM     18  N   UNL     1      42.763  51.839  36.434  1.00  0.00    -0.333 N 
ATOM     19  C   UNL     1      43.916  50.891  36.883  1.00  0.00    +0.197 C 
ATOM     20  C   UNL     1      42.999  52.741  35.282  1.00  0.00    +0.142 C 
ATOM     21  C   UNL     1      45.311  51.180  36.290  1.00  0.00    +0.153 A 
ATOM     22  C   UNL     1      44.167  52.411  34.374  1.00  0.00    +0.147 C 
ATOM     23  N   UNL     1      45.349  51.891  35.123  1.00  0.00    -0.304 N 
ATOM     24  N   UNL     1      46.537  50.867  36.688  1.00  0.00    -0.133 NA
ATOM     25  C   UNL     1      46.669  51.962  34.865  1.00  0.00    +0.238 A 
ATOM     26  N   UNL     1      47.349  51.331  35.841  1.00  0.00    -0.125 NA
BRANCH  25  27
ATOM     27  C   UNL     1      47.333  52.643  33.664  1.00  0.00    +0.451 C 
ATOM     28  F   UNL     1      47.013  53.930  33.726  1.00  0.00    -0.163 F 
ATOM     29  F   UNL     1      48.623  52.472  33.770  1.00  0.00    -0.163 F 
ATOM     30  F   UNL     1      46.888  52.085  32.532  1.00  0.00    -0.163 F 
ENDBRANCH  25  27
ENDBRANCH  16  18
ENDBRANCH   1  16
TORSDOF 7
